LAMMPS (3 Mar 2020)
variable runnumber equal 1
variable seed equal 1651654

#variable run equal 1
#variable seed equal 653541

# how often on average do proteins switch (time steps)
#variable switchSteps equal 200000

###
# Box and units  (use LJ units and periodic boundaries)
###

units lj

atom_style angle

boundary p p p

###
# Pair interactions require lists of neighbours to be calculated
###
neighbor 1.9 bin
neigh_modify every 1 delay 1 check yes

### READ "start" data file ### -- ADD EXTRA ATOM TYPE
# Remember to change the number after the setence which stands for the number of new atom types added
read_data DNA_prot.equlilb_data extra/atom/types 4
  orthogonal box = (-50 -50 -50) to (50 50 50)
  1 by 1 by 1 MPI processor grid
  reading atoms ...
  2042 atoms
  reading velocities ...
  2042 velocities
  scanning bonds ...
  1 = max bonds/atom
  scanning angles ...
  1 = max angles/atom
  reading bonds ...
  1999 bonds
  reading angles ...
  1998 angles
  2 = max # of 1-2 neighbors
  2 = max # of 1-3 neighbors
  4 = max # of 1-4 neighbors
  6 = max # of special neighbors
  special bonds CPU = 0.000719483 secs
  read_data CPU = 0.0142109 secs

# need to set mass of new type
mass 3 1.0
mass 4 1.0
mass 5 1.0
mass 6 1.0
mass 7 1.0
mass 8 1.0

###
# Define groups
###
group all type 1 2 3 4 5 6 7 8  # all group
2042 atoms in group all
group polymer type 1 5 6 7      # group for polymer
2000 atoms in group polymer
group sphereprot type 2 8   # group for sphere proteins, 2 for ON state, 8 for OFF state
2 atoms in group sphereprot
group dumbprot type 3 4    # group for dumbell proteins, 3 for reader, 4 for writer
40 atoms in group dumbprot

# dumbprot will be rigid bodies
# need a group for all atoms not in rigid bodies
group notrigids union polymer sphereprot
2002 atoms in group notrigids
###################################################################
# Stiffness term
#
# E = K * (1+cos(theta)), K>0
#
angle_style   cosine
angle_coeff   1 4.0

###################################################################


###################################################################
# Pair interaction between non-bonded atoms

pair_style      lj/cut 1.12246152962189
pair_modify     shift yes
pair_coeff      * * 1.0 1.0 1.12246152962189

###################################################################

###################################################################
# Pair interaction between bonded atoms

bond_style fene
special_bonds fene #<=== I M P O R T A N T (new command)
  2 = max # of 1-2 neighbors
  6 = max # of special neighbors
  special bonds CPU = 0.000255129 secs
bond_coeff 1  30.0   1.6   1.0   1.0

###################################################
###
# Set up fixes
###
#include /Home/cbrackle/work/seeds/seed.${run} # Load a seed for the Langevin integrator from a file


# fix nve and lagevin as usual for the DNA and sphere prots only
fix myFIX1 notrigids nve                             # NVE integrator
fix myFIX2 notrigids langevin   1.0 1.0 1.0 ${seed}  # langevin thermostat
fix myFIX2 notrigids langevin   1.0 1.0 1.0 1651654  
#      ^
#      |
#  group name

# and fix rigid/small for the rigid bodies
fix myFIX3 dumbprot rigid/small molecule langevin 1.0 1.0 1.0 ${seed}
fix myFIX3 dumbprot rigid/small molecule langevin 1.0 1.0 1.0 1651654
  create bodies CPU = 2.2181e-05 secs
20 rigid bodies with 40 atoms
  1.00001 = max distance from body owner to body atom
# use a different seed to above
# this include nve and langevin fixed for the centre of mass of each body
###################################################
###
# Output
###

dump dmp all custom 20000 dump.${runnumber}.DNA id type x y z ix iy iz
dump dmp all custom 20000 dump.1.DNA id type x y z ix iy iz
#dump dmp all custom 200 dump.${runnumber}.DNA id type x y z ix iy iz

##### Sample thermodynamic info  (temperature, energy, pressure, etc.) #####
thermo 100000
thermo_style   custom   step  temp  epair
############################################################################

#### Walls (90x90x90 box, should have system size slightly larger)
#fix pxhi all indent 10.0 plane x 45.0 hi
#fix pyhi all indent 10.0 plane y 45.0 hi
#fix pzhi all indent 10.0 plane z 45.0 hi
#fix pxlo all indent 10.0 plane x -45.0 lo
#fix pylo all indent 10.0 plane y -45.0 lo
#fix pzlo all indent 10.0 plane z -45.0 lo


###
# set timestep of integrator
###
timestep 0.01

pair_style hybrid lj/cut 1.12246152962189 morse 1.0
pair_modify shift yes
neigh_modify exclude molecule/intra dumbprot

# set all interacting the same to start
pair_coeff  * * lj/cut 1.0 1.0 1.12246152962189

###########
# add attractive interactions between
# type 1 (polymer) and type 2 (ON proteins)

# strong attraction between ON sphere and ATAC ON polymer
pair_coeff  2 7 lj/cut 8.0 1.0 1.8

# weak attraction between ON sphere and ATAC OFF
pair_coeff  2 5 lj/cut 2.5 1.0 1.8

# weak interaction between ON sphere and k27ac polymer
pair_coeff  2 6 lj/cut 2.5 1.0 1.8

###########
# do interactions for the reader-writers
# have one side of the dumbells stick to the polymer
# by going inside it. More potential parameters are:
#   -- energy
#   -- shape
#   -- distance - set as 0 to allow it to go inside
#   -- cutoff

# reader and unmarked polymer -- set with energy=0 so reader can go inside but does not stick
pair_coeff 1 3 morse 0.0 1.75 0.0 0.9

# morse potential between: ATAC ON and reader
pair_coeff 3 7 morse 12.0 1.75 0.0 1.3

# ATAC OFF and reader
pair_coeff 3 5 morse 12.0 1.75 0.0 1.3

# k27ac and reader
#pair_coeff 3 6 morse 0.0 1.75 0.0 0.9  # not sticking to k27ac
pair_coeff 3 6 morse 12.0 1.75 0.0 1.3  # sticking to k27ac


#group todel id <> 2043 2202
#delete_atoms group todel

#### run


#write_restart DNA.${runnumber}.restart

### set distance for switching to 3
group toON id 2001
1 atoms in group toON
set group toON type 2
  1 settings made for type
group toON delete
group toOFF id 2002
1 atoms in group toOFF
set group toOFF type 8
  1 settings made for type
group toOFF delete
group toATACOFF id 100 200 300 400 500 600 700 800 900 1000 1100 1200 1300 1400 1500 1600 1700 1800 1900 2000
20 atoms in group toATACOFF
set group toATACOFF type 5
  20 settings made for type
group toATACOFF delete
group unmarked id 1 2 3 4 5 6 7 8 9 10 11 12 13 14 15 16 17 18 19 20 21 22 23 24 25 26 27 28 29 30 31 32 33 34 35 36 37 38 39 40 41 42 43 44 45 46 47 48 49 50 51 52 53 54 55 56 57 58 59 60 61 62 63 64 65 66 67 68 69 70 71 72 73 74 75 76 77 78 79 80 81 82 83 84 85 86 87 88 89 90 91 92 93 94 95 96 97 98 99 101 102 103 104 105 106 107 108 109 110 111 112 113 114 115 116 117 118 119 120 121 122 123 124 125 126 127 128 129 130 131 132 133 134 135 136 137 138 139 140 141 142 143 144 145 146 147 148 149 150 151 152 153 154 155 156 157 158 159 160 161 162 163 164 165 166 167 168 169 170 171 172 173 174 175 176 177 178 179 180 181 182 183 184 185 186 187 188 189 190 191 192 193 194 195 196 197 198 199 201 202 203 204 205 206 207 208 209 210 211 212 213 214 215 216 217 218 219 220 221 222 223 224 225 226 227 228 229 230 231 232 233 234 235 236 237 238 239 240 241 242 243 244 245 246 247 248 249 250 251 252 253 254 255 256 257 258 259 260 261 262 263 264 265 266 267 268 269 270 271 272 273 274 275 276 277 278 279 280 281 282 283 284 285 286 287 288 289 290 291 292 293 294 295 296 297 298 299 301 302 303 304 305 306 307 308 309 310 311 312 313 314 315 316 317 318 319 320 321 322 323 324 325 326 327 328 329 330 331 332 333 334 335 336 337 338 339 340 341 342 343 344 345 346 347 348 349 350 351 352 353 354 355 356 357 358 359 360 361 362 363 364 365 366 367 368 369 370 371 372 373 374 375 376 377 378 379 380 381 382 383 384 385 386 387 388 389 390 391 392 393 394 395 396 397 398 399 401 402 403 404 405 406 407 408 409 410 411 412 413 414 415 416 417 418 419 420 421 422 423 424 425 426 427 428 429 430 431 432 433 434 435 436 437 438 439 440 441 442 443 444 445 446 447 448 449 450 451 452 453 454 455 456 457 458 459 460 461 462 463 464 465 466 467 468 469 470 471 472 473 474 475 476 477 478 479 480 481 482 483 484 485 486 487 488 489 490 491 492 493 494 495 496 497 498 499 501 502 503 504 505 506 507 508 509 510 511 512 513 514 515 516 517 518 519 520 521 522 523 524 525 526 527 528 529 530 531 532 533 534 535 536 537 538 539 540 541 542 543 544 545 546 547 548 549 550 551 552 553 554 555 556 557 558 559 560 561 562 563 564 565 566 567 568 569 570 571 572 573 574 575 576 577 578 579 580 581 582 583 584 585 586 587 588 589 590 591 592 593 594 595 596 597 598 599 601 602 603 604 605 606 607 608 609 610 611 612 613 614 615 616 617 618 619 620 621 622 623 624 625 626 627 628 629 630 631 632 633 634 635 636 637 638 639 640 641 642 643 644 645 646 647 648 649 650 651 652 653 654 655 656 657 658 659 660 661 662 663 664 665 666 667 668 669 670 671 672 673 674 675 676 677 678 679 680 681 682 683 684 685 686 687 688 689 690 691 692 693 694 695 696 697 698 699 701 702 703 704 705 706 707 708 709 710 711 712 713 714 715 716 717 718 719 720 721 722 723 724 725 726 727 728 729 730 731 732 733 734 735 736 737 738 739 740 741 742 743 744 745 746 747 748 749 750 751 752 753 754 755 756 757 758 759 760 761 762 763 764 765 766 767 768 769 770 771 772 773 774 775 776 777 778 779 780 781 782 783 784 785 786 787 788 789 790 791 792 793 794 795 796 797 798 799 801 802 803 804 805 806 807 808 809 810 811 812 813 814 815 816 817 818 819 820 821 822 823 824 825 826 827 828 829 830 831 832 833 834 835 836 837 838 839 840 841 842 843 844 845 846 847 848 849 850 851 852 853 854 855 856 857 858 859 860 861 862 863 864 865 866 867 868 869 870 871 872 873 874 875 876 877 878 879 880 881 882 883 884 885 886 887 888 889 890 891 892 893 894 895 896 897 898 899 901 902 903 904 905 906 907 908 909 910 911 912 913 914 915 916 917 918 919 920 921 922 923 924 925 926 927 928 929 930 931 932 933 934 935 936 937 938 939 940 941 942 943 944 945 946 947 948 949 950 951 952 953 954 955 956 957 958 959 960 961 962 963 964 965 966 967 968 969 970 971 972 973 974 975 976 977 978 979 980 981 982 983 984 985 986 987 988 989 990 991 992 993 994 995 996 997 998 999 1001 1002 1003 1004 1005 1006 1007 1008 1009 1010 1011 1012 1013 1014 1015 1016 1017 1018 1019 1020 1021 1022 1023 1024 1025 1026 1027 1028 1029 1030 1031 1032 1033 1034 1035 1036 1037 1038 1039 1040 1041 1042 1043 1044 1045 1046 1047 1048 1049 1050 1051 1052 1053 1054 1055 1056 1057 1058 1059 1060 1061 1062 1063 1064 1065 1066 1067 1068 1069 1070 1071 1072 1073 1074 1075 1076 1077 1078 1079 1080 1081 1082 1083 1084 1085 1086 1087 1088 1089 1090 1091 1092 1093 1094 1095 1096 1097 1098 1099 1101 1102 1103 1104 1105 1106 1107 1108 1109 1110 1111 1112 1113 1114 1115 1116 1117 1118 1119 1120 1121 1122 1123 1124 1125 1126 1127 1128 1129 1130 1131 1132 1133 1134 1135 1136 1137 1138 1139 1140 1141 1142 1143 1144 1145 1146 1147 1148 1149 1150 1151 1152 1153 1154 1155 1156 1157 1158 1159 1160 1161 1162 1163 1164 1165 1166 1167 1168 1169 1170 1171 1172 1173 1174 1175 1176 1177 1178 1179 1180 1181 1182 1183 1184 1185 1186 1187 1188 1189 1190 1191 1192 1193 1194 1195 1196 1197 1198 1199 1201 1202 1203 1204 1205 1206 1207 1208 1209 1210 1211 1212 1213 1214 1215 1216 1217 1218 1219 1220 1221 1222 1223 1224 1225 1226 1227 1228 1229 1230 1231 1232 1233 1234 1235 1236 1237 1238 1239 1240 1241 1242 1243 1244 1245 1246 1247 1248 1249 1250 1251 1252 1253 1254 1255 1256 1257 1258 1259 1260 1261 1262 1263 1264 1265 1266 1267 1268 1269 1270 1271 1272 1273 1274 1275 1276 1277 1278 1279 1280 1281 1282 1283 1284 1285 1286 1287 1288 1289 1290 1291 1292 1293 1294 1295 1296 1297 1298 1299 1301 1302 1303 1304 1305 1306 1307 1308 1309 1310 1311 1312 1313 1314 1315 1316 1317 1318 1319 1320 1321 1322 1323 1324 1325 1326 1327 1328 1329 1330 1331 1332 1333 1334 1335 1336 1337 1338 1339 1340 1341 1342 1343 1344 1345 1346 1347 1348 1349 1350 1351 1352 1353 1354 1355 1356 1357 1358 1359 1360 1361 1362 1363 1364 1365 1366 1367 1368 1369 1370 1371 1372 1373 1374 1375 1376 1377 1378 1379 1380 1381 1382 1383 1384 1385 1386 1387 1388 1389 1390 1391 1392 1393 1394 1395 1396 1397 1398 1399 1401 1402 1403 1404 1405 1406 1407 1408 1409 1410 1411 1412 1413 1414 1415 1416 1417 1418 1419 1420 1421 1422 1423 1424 1425 1426 1427 1428 1429 1430 1431 1432 1433 1434 1435 1436 1437 1438 1439 1440 1441 1442 1443 1444 1445 1446 1447 1448 1449 1450 1451 1452 1453 1454 1455 1456 1457 1458 1459 1460 1461 1462 1463 1464 1465 1466 1467 1468 1469 1470 1471 1472 1473 1474 1475 1476 1477 1478 1479 1480 1481 1482 1483 1484 1485 1486 1487 1488 1489 1490 1491 1492 1493 1494 1495 1496 1497 1498 1499 1501 1502 1503 1504 1505 1506 1507 1508 1509 1510 1511 1512 1513 1514 1515 1516 1517 1518 1519 1520 1521 1522 1523 1524 1525 1526 1527 1528 1529 1530 1531 1532 1533 1534 1535 1536 1537 1538 1539 1540 1541 1542 1543 1544 1545 1546 1547 1548 1549 1550 1551 1552 1553 1554 1555 1556 1557 1558 1559 1560 1561 1562 1563 1564 1565 1566 1567 1568 1569 1570 1571 1572 1573 1574 1575 1576 1577 1578 1579 1580 1581 1582 1583 1584 1585 1586 1587 1588 1589 1590 1591 1592 1593 1594 1595 1596 1597 1598 1599 1601 1602 1603 1604 1605 1606 1607 1608 1609 1610 1611 1612 1613 1614 1615 1616 1617 1618 1619 1620 1621 1622 1623 1624 1625 1626 1627 1628 1629 1630 1631 1632 1633 1634 1635 1636 1637 1638 1639 1640 1641 1642 1643 1644 1645 1646 1647 1648 1649 1650 1651 1652 1653 1654 1655 1656 1657 1658 1659 1660 1661 1662 1663 1664 1665 1666 1667 1668 1669 1670 1671 1672 1673 1674 1675 1676 1677 1678 1679 1680 1681 1682 1683 1684 1685 1686 1687 1688 1689 1690 1691 1692 1693 1694 1695 1696 1697 1698 1699 1701 1702 1703 1704 1705 1706 1707 1708 1709 1710 1711 1712 1713 1714 1715 1716 1717 1718 1719 1720 1721 1722 1723 1724 1725 1726 1727 1728 1729 1730 1731 1732 1733 1734 1735 1736 1737 1738 1739 1740 1741 1742 1743 1744 1745 1746 1747 1748 1749 1750 1751 1752 1753 1754 1755 1756 1757 1758 1759 1760 1761 1762 1763 1764 1765 1766 1767 1768 1769 1770 1771 1772 1773 1774 1775 1776 1777 1778 1779 1780 1781 1782 1783 1784 1785 1786 1787 1788 1789 1790 1791 1792 1793 1794 1795 1796 1797 1798 1799 1801 1802 1803 1804 1805 1806 1807 1808 1809 1810 1811 1812 1813 1814 1815 1816 1817 1818 1819 1820 1821 1822 1823 1824 1825 1826 1827 1828 1829 1830 1831 1832 1833 1834 1835 1836 1837 1838 1839 1840 1841 1842 1843 1844 1845 1846 1847 1848 1849 1850 1851 1852 1853 1854 1855 1856 1857 1858 1859 1860 1861 1862 1863 1864 1865 1866 1867 1868 1869 1870 1871 1872 1873 1874 1875 1876 1877 1878 1879 1880 1881 1882 1883 1884 1885 1886 1887 1888 1889 1890 1891 1892 1893 1894 1895 1896 1897 1898 1899 1901 1902 1903 1904 1905 1906 1907 1908 1909 1910 1911 1912 1913 1914 1915 1916 1917 1918 1919 1920 1921 1922 1923 1924 1925 1926 1927 1928 1929 1930 1931 1932 1933 1934 1935 1936 1937 1938 1939 1940 1941 1942 1943 1944 1945 1946 1947 1948 1949 1950 1951 1952 1953 1954 1955 1956 1957 1958 1959 1960 1961 1962 1963 1964 1965 1966 1967 1968 1969 1970 1971 1972 1973 1974 1975 1976 1977 1978 1979 1980 1981 1982 1983 1984 1985 1986 1987 1988 1989 1990 1991 1992 1993 1994 1995 1996 1997 1998 1999
1980 atoms in group unmarked
set group unmarked type 1
  1980 settings made for type
group unmarked delete
group swATACOFF2ON id  1900
1 atoms in group swATACOFF2ON
set group swATACOFF2ON type 7
  1 settings made for type
group swATACOFF2ON delete
group swunmark2k id  1599 1601 1604 1605 1606 1609 1898 1899 1908 1962 1963
11 atoms in group swunmark2k
set group swunmark2k type 6
  11 settings made for type
group swunmark2k delete
run 15000 post no
Neighbor list info ...
  update every 1 steps, delay 1 steps, check yes
  max neighbors/atom: 2000, page size: 100000
  master list distance cutoff = 3.7
  ghost atom cutoff = 3.7
  binsize = 1.85, bins = 55 55 55
  3 neighbor lists, perpetual/occasional/extra = 3 0 0
  (1) pair lj/cut, perpetual, skip from (3)
      attributes: half, newton on
      pair build: skip
      stencil: none
      bin: none
  (2) pair morse, perpetual, skip from (3)
      attributes: half, newton on
      pair build: skip
      stencil: none
      bin: none
  (3) neighbor class addition, perpetual
      attributes: half, newton on
      pair build: half/bin/newton
      stencil: half/bin/3d/newton
      bin: standard
Per MPI rank memory allocation (min/avg/max) = 13.33 | 13.33 | 13.33 Mbytes
Step Temp E_pair 
       0    0.9769579 0.00013472745 
   15000    1.0275098 0.0018628794 
Loop time of 4.13368 on 1 procs for 15000 steps with 2042 atoms

group swATACOFF2ON id  1200
1 atoms in group swATACOFF2ON
set group swATACOFF2ON type 7
  1 settings made for type
group swATACOFF2ON delete
group swunmark2k id  1189 1194 1195 1196 1197 1811
6 atoms in group swunmark2k
set group swunmark2k type 6
  6 settings made for type
group swunmark2k delete
group swk2unmark id  1899
1 atoms in group swk2unmark
set group swk2unmark type 1
  1 settings made for type
group swk2unmark delete
run 15000 post no
Neighbor list info ...
  update every 1 steps, delay 1 steps, check yes
  max neighbors/atom: 2000, page size: 100000
  master list distance cutoff = 3.7
  ghost atom cutoff = 3.7
  binsize = 1.85, bins = 55 55 55
  3 neighbor lists, perpetual/occasional/extra = 3 0 0
  (1) pair lj/cut, perpetual, skip from (3)
      attributes: half, newton on
      pair build: skip
      stencil: none
      bin: none
  (2) pair morse, perpetual, skip from (3)
      attributes: half, newton on
      pair build: skip
      stencil: none
      bin: none
  (3) neighbor class addition, perpetual
      attributes: half, newton on
      pair build: half/bin/newton
      stencil: half/bin/3d/newton
      bin: standard
Per MPI rank memory allocation (min/avg/max) = 13.33 | 13.33 | 13.33 Mbytes
Step Temp E_pair 
   15000    1.0275098 -0.00063959364 
   30000    1.0132535 -0.0097668817 
Loop time of 4.12731 on 1 procs for 15000 steps with 2042 atoms

group swunmark2k id  1190 1191 1192 1193 1198 1280 1281 1284 1383 1402 1680 1961 1965 1966 1967 1968
16 atoms in group swunmark2k
set group swunmark2k type 6
  16 settings made for type
group swunmark2k delete
group swATACON2OFF id  1900
1 atoms in group swATACON2OFF
set group swATACON2OFF type 5
  1 settings made for type
group swATACON2OFF delete
group swk2unmark id  1195 1601
2 atoms in group swk2unmark
set group swk2unmark type 1
  2 settings made for type
group swk2unmark delete
run 15000 post no
Neighbor list info ...
  update every 1 steps, delay 1 steps, check yes
  max neighbors/atom: 2000, page size: 100000
  master list distance cutoff = 3.7
  ghost atom cutoff = 3.7
  binsize = 1.85, bins = 55 55 55
  3 neighbor lists, perpetual/occasional/extra = 3 0 0
  (1) pair lj/cut, perpetual, skip from (3)
      attributes: half, newton on
      pair build: skip
      stencil: none
      bin: none
  (2) pair morse, perpetual, skip from (3)
      attributes: half, newton on
      pair build: skip
      stencil: none
      bin: none
  (3) neighbor class addition, perpetual
      attributes: half, newton on
      pair build: half/bin/newton
      stencil: half/bin/3d/newton
      bin: standard
Per MPI rank memory allocation (min/avg/max) = 13.33 | 13.33 | 13.33 Mbytes
Step Temp E_pair 
   30000    1.0132535 -0.0058572222 
   45000   0.99520122 -0.0089592554 
Loop time of 4.10645 on 1 procs for 15000 steps with 2042 atoms

group swunmark2k id  577 578 579 580 582 1195 1202 1204 1205 1276 1278 1279 1285 1289 1868 1869 1872 1874 1875 1955 1964 1970
22 atoms in group swunmark2k
set group swunmark2k type 6
  22 settings made for type
group swunmark2k delete
group swk2unmark id  1402 1605 1963
3 atoms in group swk2unmark
set group swk2unmark type 1
  3 settings made for type
group swk2unmark delete
run 15000 post no
Neighbor list info ...
  update every 1 steps, delay 1 steps, check yes
  max neighbors/atom: 2000, page size: 100000
  master list distance cutoff = 3.7
  ghost atom cutoff = 3.7
  binsize = 1.85, bins = 55 55 55
  3 neighbor lists, perpetual/occasional/extra = 3 0 0
  (1) pair lj/cut, perpetual, skip from (3)
      attributes: half, newton on
      pair build: skip
      stencil: none
      bin: none
  (2) pair morse, perpetual, skip from (3)
      attributes: half, newton on
      pair build: skip
      stencil: none
      bin: none
  (3) neighbor class addition, perpetual
      attributes: half, newton on
      pair build: half/bin/newton
      stencil: half/bin/3d/newton
      bin: standard
Per MPI rank memory allocation (min/avg/max) = 13.33 | 13.33 | 13.33 Mbytes
Step Temp E_pair 
   45000   0.99520122 -0.0087193364 
   60000    1.0119365  -0.01542019 
Loop time of 4.08301 on 1 procs for 15000 steps with 2042 atoms

group swOFF2ON id  2002
1 atoms in group swOFF2ON
set group swOFF2ON type 2
  1 settings made for type
group swOFF2ON delete
group swunmark2k id  629 630 633 635 642 644 645 646 1181 1182 1183 1186 1187 1188 1199 1201 1589 1590 1591 1592 1594 1595 1597 1598 1607 1608 1671 1675 1676 1677 1682 1683 1877 1878 1884 1886 1956 1957 1959 1963 1969
41 atoms in group swunmark2k
set group swunmark2k type 6
  41 settings made for type
group swunmark2k delete
group swk2unmark id  1192 1875
2 atoms in group swk2unmark
set group swk2unmark type 1
  2 settings made for type
group swk2unmark delete
run 15000 post no
Neighbor list info ...
  update every 1 steps, delay 1 steps, check yes
  max neighbors/atom: 2000, page size: 100000
  master list distance cutoff = 3.7
  ghost atom cutoff = 3.7
  binsize = 1.85, bins = 55 55 55
  3 neighbor lists, perpetual/occasional/extra = 3 0 0
  (1) pair lj/cut, perpetual, skip from (3)
      attributes: half, newton on
      pair build: skip
      stencil: none
      bin: none
  (2) pair morse, perpetual, skip from (3)
      attributes: half, newton on
      pair build: skip
      stencil: none
      bin: none
  (3) neighbor class addition, perpetual
      attributes: half, newton on
      pair build: half/bin/newton
      stencil: half/bin/3d/newton
      bin: standard
Per MPI rank memory allocation (min/avg/max) = 13.33 | 13.33 | 13.33 Mbytes
Step Temp E_pair 
   60000    1.0119365 -0.015063458 
   75000    1.0122991 -0.0086077264 
Loop time of 4.09755 on 1 procs for 15000 steps with 2042 atoms

group swON2OFF id  2002
1 atoms in group swON2OFF
set group swON2OFF type 8
  1 settings made for type
group swON2OFF delete
group swATACOFF2ON id  1400 1600
2 atoms in group swATACOFF2ON
set group swATACOFF2ON type 7
  2 settings made for type
group swATACOFF2ON delete
group swunmark2k id  196 315 316 318 319 320 321 1206 1207 1282 1286 1393 1395 1396 1397 1399 1402 1403 1605 1814 1975 1977 1978 1983 1984 1985
26 atoms in group swunmark2k
set group swunmark2k type 6
  26 settings made for type
group swunmark2k delete
group swk2unmark id  1289 1589 1597 1967
4 atoms in group swk2unmark
set group swk2unmark type 1
  4 settings made for type
group swk2unmark delete
run 15000 post no
Neighbor list info ...
  update every 1 steps, delay 1 steps, check yes
  max neighbors/atom: 2000, page size: 100000
  master list distance cutoff = 3.7
  ghost atom cutoff = 3.7
  binsize = 1.85, bins = 55 55 55
  3 neighbor lists, perpetual/occasional/extra = 3 0 0
  (1) pair lj/cut, perpetual, skip from (3)
      attributes: half, newton on
      pair build: skip
      stencil: none
      bin: none
  (2) pair morse, perpetual, skip from (3)
      attributes: half, newton on
      pair build: skip
      stencil: none
      bin: none
  (3) neighbor class addition, perpetual
      attributes: half, newton on
      pair build: half/bin/newton
      stencil: half/bin/3d/newton
      bin: standard
Per MPI rank memory allocation (min/avg/max) = 13.39 | 13.39 | 13.39 Mbytes
Step Temp E_pair 
   75000    1.0122991 -0.0086077264 
   90000   0.98951205 -0.0082469164 
Loop time of 4.12346 on 1 procs for 15000 steps with 2042 atoms

group swunmark2k id  24 25 31 32 35 37 42 44 45 49 56 881 882 883 885 886 888 889 1008 1011 1012 1013 1035 1036 1037 1192 1274 1275 1277 1384 1389 1390 1391 1624 1625 1789 1790 1794 1795 1807 1808 1809 1917 1918 1920 1921 1958 1960 1967 1987
50 atoms in group swunmark2k
set group swunmark2k type 6
  50 settings made for type
group swunmark2k delete
group swATACON2OFF id  1600
1 atoms in group swATACON2OFF
set group swATACON2OFF type 5
  1 settings made for type
group swATACON2OFF delete
group swk2unmark id  196 1278 1281 1874 1959 1969
6 atoms in group swk2unmark
set group swk2unmark type 1
  6 settings made for type
group swk2unmark delete
run 15000 post no
Neighbor list info ...
  update every 1 steps, delay 1 steps, check yes
  max neighbors/atom: 2000, page size: 100000
  master list distance cutoff = 3.7
  ghost atom cutoff = 3.7
  binsize = 1.85, bins = 55 55 55
  3 neighbor lists, perpetual/occasional/extra = 3 0 0
  (1) pair lj/cut, perpetual, skip from (3)
      attributes: half, newton on
      pair build: skip
      stencil: none
      bin: none
  (2) pair morse, perpetual, skip from (3)
      attributes: half, newton on
      pair build: skip
      stencil: none
      bin: none
  (3) neighbor class addition, perpetual
      attributes: half, newton on
      pair build: half/bin/newton
      stencil: half/bin/3d/newton
      bin: standard
Per MPI rank memory allocation (min/avg/max) = 13.39 | 13.39 | 13.39 Mbytes
Step Temp E_pair 
   90000   0.98951205 -0.0082469164 
  100000   0.98868182 -0.016922084 
  105000   0.98766966 -0.014622226 
Loop time of 4.09097 on 1 procs for 15000 steps with 2042 atoms

group swunmark2k id  892 925 931 934 935 939 940 942 943 946 947 1030 1033 1034 1039 1040 1104 1105 1106 1270 1751 1752 1754 1755 1757 1759 1761 1763 1954 1959 1969 1971 1974 1994 1995
35 atoms in group swunmark2k
set group swunmark2k type 6
  35 settings made for type
group swunmark2k delete
group swATACON2OFF id  1200 1400
2 atoms in group swATACON2OFF
set group swATACON2OFF type 5
  2 settings made for type
group swATACON2OFF delete
group swk2unmark id  24 1037 1182 1197 1590 1984
6 atoms in group swk2unmark
set group swk2unmark type 1
  6 settings made for type
group swk2unmark delete
run 15000 post no
Neighbor list info ...
  update every 1 steps, delay 1 steps, check yes
  max neighbors/atom: 2000, page size: 100000
  master list distance cutoff = 3.7
  ghost atom cutoff = 3.7
  binsize = 1.85, bins = 55 55 55
  3 neighbor lists, perpetual/occasional/extra = 3 0 0
  (1) pair lj/cut, perpetual, skip from (3)
      attributes: half, newton on
      pair build: skip
      stencil: none
      bin: none
  (2) pair morse, perpetual, skip from (3)
      attributes: half, newton on
      pair build: skip
      stencil: none
      bin: none
  (3) neighbor class addition, perpetual
      attributes: half, newton on
      pair build: half/bin/newton
      stencil: half/bin/3d/newton
      bin: standard
Per MPI rank memory allocation (min/avg/max) = 13.39 | 13.39 | 13.39 Mbytes
Step Temp E_pair 
  105000   0.98766966 -0.016378599 
  120000   0.97587118 -0.014311416 
Loop time of 4.09296 on 1 procs for 15000 steps with 2042 atoms

group swOFF2ON id  2002
1 atoms in group swOFF2ON
set group swOFF2ON type 2
  1 settings made for type
group swOFF2ON delete
group swATACOFF2ON id  1900
1 atoms in group swATACOFF2ON
set group swATACOFF2ON type 7
  1 settings made for type
group swATACOFF2ON delete
group swunmark2k id  224 225 1272 1273 1278 1281 1746 1748 1749 1750 1756 1758 1785 1899 1914 1915 1922 1949
18 atoms in group swunmark2k
set group swunmark2k type 6
  18 settings made for type
group swunmark2k delete
group swk2unmark id  645 1196 1391
3 atoms in group swk2unmark
set group swk2unmark type 1
  3 settings made for type
group swk2unmark delete
run 15000 post no
Neighbor list info ...
  update every 1 steps, delay 1 steps, check yes
  max neighbors/atom: 2000, page size: 100000
  master list distance cutoff = 3.7
  ghost atom cutoff = 3.7
  binsize = 1.85, bins = 55 55 55
  3 neighbor lists, perpetual/occasional/extra = 3 0 0
  (1) pair lj/cut, perpetual, skip from (3)
      attributes: half, newton on
      pair build: skip
      stencil: none
      bin: none
  (2) pair morse, perpetual, skip from (3)
      attributes: half, newton on
      pair build: skip
      stencil: none
      bin: none
  (3) neighbor class addition, perpetual
      attributes: half, newton on
      pair build: half/bin/newton
      stencil: half/bin/3d/newton
      bin: standard
Per MPI rank memory allocation (min/avg/max) = 13.39 | 13.39 | 13.39 Mbytes
Step Temp E_pair 
  120000   0.97587118 -0.014333785 
  135000    1.0088098 -0.019039745 
Loop time of 4.09783 on 1 procs for 15000 steps with 2042 atoms

group swunmark2k id  1283 1288 1725 1744 1747
5 atoms in group swunmark2k
set group swunmark2k type 6
  5 settings made for type
group swunmark2k delete
group swk2unmark id  224 315 320 1284 1399 1599 1606 1609 1625 1680 1790 1956 1959 1967 1969 1994
16 atoms in group swk2unmark
set group swk2unmark type 1
  16 settings made for type
group swk2unmark delete
run 15000 post no
Neighbor list info ...
  update every 1 steps, delay 1 steps, check yes
  max neighbors/atom: 2000, page size: 100000
  master list distance cutoff = 3.7
  ghost atom cutoff = 3.7
  binsize = 1.85, bins = 55 55 55
  3 neighbor lists, perpetual/occasional/extra = 3 0 0
  (1) pair lj/cut, perpetual, skip from (3)
      attributes: half, newton on
      pair build: skip
      stencil: none
      bin: none
  (2) pair morse, perpetual, skip from (3)
      attributes: half, newton on
      pair build: skip
      stencil: none
      bin: none
  (3) neighbor class addition, perpetual
      attributes: half, newton on
      pair build: half/bin/newton
      stencil: half/bin/3d/newton
      bin: standard
Per MPI rank memory allocation (min/avg/max) = 13.39 | 13.39 | 13.39 Mbytes
Step Temp E_pair 
  135000    1.0088098 -0.019567439 
  150000    1.0320737 -0.021802419 
Loop time of 4.11927 on 1 procs for 15000 steps with 2042 atoms

group swunmark2k id  906 907 908 1179 1180 1740 1741 1742 1743 1753 1935 1936 1938 1939 1940 1941
16 atoms in group swunmark2k
set group swunmark2k type 6
  16 settings made for type
group swunmark2k delete
group swk2unmark id  45 318 882 886 1039 1187 1206 1389 1395 1795 1807 1886 1915 1920
14 atoms in group swk2unmark
set group swk2unmark type 1
  14 settings made for type
group swk2unmark delete
run 15000 post no
Neighbor list info ...
  update every 1 steps, delay 1 steps, check yes
  max neighbors/atom: 2000, page size: 100000
  master list distance cutoff = 3.7
  ghost atom cutoff = 3.7
  binsize = 1.85, bins = 55 55 55
  3 neighbor lists, perpetual/occasional/extra = 3 0 0
  (1) pair lj/cut, perpetual, skip from (3)
      attributes: half, newton on
      pair build: skip
      stencil: none
      bin: none
  (2) pair morse, perpetual, skip from (3)
      attributes: half, newton on
      pair build: skip
      stencil: none
      bin: none
  (3) neighbor class addition, perpetual
      attributes: half, newton on
      pair build: half/bin/newton
      stencil: half/bin/3d/newton
      bin: standard
Per MPI rank memory allocation (min/avg/max) = 13.39 | 13.39 | 13.39 Mbytes
Step Temp E_pair 
  150000    1.0320737 -0.021802419 
  165000   0.97319054 -0.024409776 
Loop time of 4.12769 on 1 procs for 15000 steps with 2042 atoms

group swunmark2k id  3 1187 1196 1197 1268 1271 1287 1318 1322 1325 1398 1399 1727 1728 1762 1764 1967 1979 1986 1988 1989
21 atoms in group swunmark2k
set group swunmark2k type 6
  21 settings made for type
group swunmark2k delete
group swk2unmark id  56 925 1180 1199 1207 1277 1282 1396 1624 1675 1750 1939 1954 1985
14 atoms in group swk2unmark
set group swk2unmark type 1
  14 settings made for type
group swk2unmark delete
run 15000 post no
Neighbor list info ...
  update every 1 steps, delay 1 steps, check yes
  max neighbors/atom: 2000, page size: 100000
  master list distance cutoff = 3.7
  ghost atom cutoff = 3.7
  binsize = 1.85, bins = 55 55 55
  3 neighbor lists, perpetual/occasional/extra = 3 0 0
  (1) pair lj/cut, perpetual, skip from (3)
      attributes: half, newton on
      pair build: skip
      stencil: none
      bin: none
  (2) pair morse, perpetual, skip from (3)
      attributes: half, newton on
      pair build: skip
      stencil: none
      bin: none
  (3) neighbor class addition, perpetual
      attributes: half, newton on
      pair build: half/bin/newton
      stencil: half/bin/3d/newton
      bin: standard
Per MPI rank memory allocation (min/avg/max) = 13.39 | 13.39 | 13.39 Mbytes
Step Temp E_pair 
  165000   0.97319054 -0.019893461 
  180000    1.0427358 -0.027332054 
Loop time of 4.16333 on 1 procs for 15000 steps with 2042 atoms

group swunmark2k id  294 297 301 302 303 304 471 473 476 1184 1185 1214 1216 1217 1277 1310 1313 1316 1738 1739 1750 1760
22 atoms in group swunmark2k
set group swunmark2k type 6
  22 settings made for type
group swunmark2k delete
group swk2unmark id  225 316 906 1011 1106 1183 1188 1194 1268 1322 1746 1747 1754 1763 1908 1958 1966 1975 1989
19 atoms in group swk2unmark
set group swk2unmark type 1
  19 settings made for type
group swk2unmark delete
run 15000 post no
Neighbor list info ...
  update every 1 steps, delay 1 steps, check yes
  max neighbors/atom: 2000, page size: 100000
  master list distance cutoff = 3.7
  ghost atom cutoff = 3.7
  binsize = 1.85, bins = 55 55 55
  3 neighbor lists, perpetual/occasional/extra = 3 0 0
  (1) pair lj/cut, perpetual, skip from (3)
      attributes: half, newton on
      pair build: skip
      stencil: none
      bin: none
  (2) pair morse, perpetual, skip from (3)
      attributes: half, newton on
      pair build: skip
      stencil: none
      bin: none
  (3) neighbor class addition, perpetual
      attributes: half, newton on
      pair build: half/bin/newton
      stencil: half/bin/3d/newton
      bin: standard
Per MPI rank memory allocation (min/avg/max) = 13.39 | 13.39 | 13.39 Mbytes
Step Temp E_pair 
  180000    1.0427358 -0.019264326 
  195000     1.003457 -0.034550608 
Loop time of 4.13801 on 1 procs for 15000 steps with 2042 atoms

group swATACOFF2ON id  1200
1 atoms in group swATACOFF2ON
set group swATACOFF2ON type 7
  1 settings made for type
group swATACOFF2ON delete
group swunmark2k id  275 276 299 305 306 1267 1745 1746 1919 1923 1958 1959 1966
13 atoms in group swunmark2k
set group swunmark2k type 6
  13 settings made for type
group swunmark2k delete
group swk2unmark id  44 580 940 943 1008 1195 1217 1397 1604 1743 1917 1938 1941 1957 1960 1979 1986
17 atoms in group swk2unmark
set group swk2unmark type 1
  17 settings made for type
group swk2unmark delete
run 15000 post no
Neighbor list info ...
  update every 1 steps, delay 1 steps, check yes
  max neighbors/atom: 2000, page size: 100000
  master list distance cutoff = 3.7
  ghost atom cutoff = 3.7
  binsize = 1.85, bins = 55 55 55
  3 neighbor lists, perpetual/occasional/extra = 3 0 0
  (1) pair lj/cut, perpetual, skip from (3)
      attributes: half, newton on
      pair build: skip
      stencil: none
      bin: none
  (2) pair morse, perpetual, skip from (3)
      attributes: half, newton on
      pair build: skip
      stencil: none
      bin: none
  (3) neighbor class addition, perpetual
      attributes: half, newton on
      pair build: half/bin/newton
      stencil: half/bin/3d/newton
      bin: standard
Per MPI rank memory allocation (min/avg/max) = 13.39 | 13.39 | 13.39 Mbytes
Step Temp E_pair 
  195000     1.003457 -0.031813988 
  200000    1.0094329  -0.02744733 
  210000   0.99552594 -0.029747625 
Loop time of 4.15037 on 1 procs for 15000 steps with 2042 atoms

group swunmark2k id  269 270 272 273 277 286 298 307 308 309 594 835 836 837 838 1268 1282 1284 1687 1688 1956 1957 1960
23 atoms in group swunmark2k
set group swunmark2k type 6
  23 settings made for type
group swunmark2k delete
group swk2unmark id  35 275 633 935 942 1030 1036 1275 1595 1598 1922 1964 1967 1988
14 atoms in group swk2unmark
set group swk2unmark type 1
  14 settings made for type
group swk2unmark delete
run 15000 post no
Neighbor list info ...
  update every 1 steps, delay 1 steps, check yes
  max neighbors/atom: 2000, page size: 100000
  master list distance cutoff = 3.7
  ghost atom cutoff = 3.7
  binsize = 1.85, bins = 55 55 55
  3 neighbor lists, perpetual/occasional/extra = 3 0 0
  (1) pair lj/cut, perpetual, skip from (3)
      attributes: half, newton on
      pair build: skip
      stencil: none
      bin: none
  (2) pair morse, perpetual, skip from (3)
      attributes: half, newton on
      pair build: skip
      stencil: none
      bin: none
  (3) neighbor class addition, perpetual
      attributes: half, newton on
      pair build: half/bin/newton
      stencil: half/bin/3d/newton
      bin: standard
Per MPI rank memory allocation (min/avg/max) = 13.39 | 13.39 | 13.39 Mbytes
Step Temp E_pair 
  210000   0.99552594 -0.024676195 
  225000   0.99931871 -0.032842176 
Loop time of 4.13874 on 1 procs for 15000 steps with 2042 atoms

group swATACOFF2ON id  1700
1 atoms in group swATACOFF2ON
set group swATACOFF2ON type 7
  1 settings made for type
group swATACOFF2ON delete
group swunmark2k id  125 126 130 132 312 313 458 831 832 833 834 839 840 841 843 1260 1261 1264 1266 1269 1289 1291 1293 1294 1295 1450 1458 1697 1699 1951 1954
31 atoms in group swunmark2k
set group swunmark2k type 6
  31 settings made for type
group swunmark2k delete
group swk2unmark id  269 307 321 630 644 1040 1198 1273 1274 1280 1281 1745 1759 1761 1764 1935
16 atoms in group swk2unmark
set group swk2unmark type 1
  16 settings made for type
group swk2unmark delete
run 15000 post no
Neighbor list info ...
  update every 1 steps, delay 1 steps, check yes
  max neighbors/atom: 2000, page size: 100000
  master list distance cutoff = 3.7
  ghost atom cutoff = 3.7
  binsize = 1.85, bins = 55 55 55
  3 neighbor lists, perpetual/occasional/extra = 3 0 0
  (1) pair lj/cut, perpetual, skip from (3)
      attributes: half, newton on
      pair build: skip
      stencil: none
      bin: none
  (2) pair morse, perpetual, skip from (3)
      attributes: half, newton on
      pair build: skip
      stencil: none
      bin: none
  (3) neighbor class addition, perpetual
      attributes: half, newton on
      pair build: half/bin/newton
      stencil: half/bin/3d/newton
      bin: standard
Per MPI rank memory allocation (min/avg/max) = 13.39 | 13.39 | 13.39 Mbytes
Step Temp E_pair 
  225000   0.99931871 -0.032807376 
  240000   0.99579156 -0.031211025 
Loop time of 4.15297 on 1 procs for 15000 steps with 2042 atoms

group swON2OFF id  2001
1 atoms in group swON2OFF
set group swON2OFF type 8
  1 settings made for type
group swON2OFF delete
group swATACOFF2ON id  300
1 atoms in group swATACOFF2ON
set group swATACOFF2ON type 7
  1 settings made for type
group swATACOFF2ON delete
group swunmark2k id  296 307 595 596 597 842 844 846 847 1262 1263 1265 1305 1308 1309 1693 1698 1701 1705 1706 1743 1745 1747 1761 1763 1764 1765 1766 1833 1836 1838 1840 1943 1945 1947
35 atoms in group swunmark2k
set group swunmark2k type 6
  35 settings made for type
group swunmark2k delete
group swk2unmark id  130 270 302 304 578 642 832 837 946 1181 1278 1295 1383 1390 1752 1756 1794 1872 1914 1956 1965
21 atoms in group swk2unmark
set group swk2unmark type 1
  21 settings made for type
group swk2unmark delete
run 15000 post no
Neighbor list info ...
  update every 1 steps, delay 1 steps, check yes
  max neighbors/atom: 2000, page size: 100000
  master list distance cutoff = 3.7
  ghost atom cutoff = 3.7
  binsize = 1.85, bins = 55 55 55
  3 neighbor lists, perpetual/occasional/extra = 3 0 0
  (1) pair lj/cut, perpetual, skip from (3)
      attributes: half, newton on
      pair build: skip
      stencil: none
      bin: none
  (2) pair morse, perpetual, skip from (3)
      attributes: half, newton on
      pair build: skip
      stencil: none
      bin: none
  (3) neighbor class addition, perpetual
      attributes: half, newton on
      pair build: half/bin/newton
      stencil: half/bin/3d/newton
      bin: standard
Per MPI rank memory allocation (min/avg/max) = 13.39 | 13.39 | 13.39 Mbytes
Step Temp E_pair 
  240000   0.99579156 -0.031550437 
  255000   0.99299692 -0.030890558 
Loop time of 4.16189 on 1 procs for 15000 steps with 2042 atoms

group swunmark2k id  295 492 493 496 497 498 499 503 507 508 513 837 848 851 852 1078 1080 1081 1082 1083 1084 1273 1280 1281 1737 1756 1759 1937 1939 1942 1946 1953 1956 1964
34 atoms in group swunmark2k
set group swunmark2k type 6
  34 settings made for type
group swunmark2k delete
group swk2unmark id  31 37 308 595 843 934 1104 1272 1287 1294 1308 1591 1683 1699 1705 1725 1755 1763 1808 1958 1995
21 atoms in group swk2unmark
set group swk2unmark type 1
  21 settings made for type
group swk2unmark delete
run 15000 post no
Neighbor list info ...
  update every 1 steps, delay 1 steps, check yes
  max neighbors/atom: 2000, page size: 100000
  master list distance cutoff = 3.7
  ghost atom cutoff = 3.7
  binsize = 1.85, bins = 55 55 55
  3 neighbor lists, perpetual/occasional/extra = 3 0 0
  (1) pair lj/cut, perpetual, skip from (3)
      attributes: half, newton on
      pair build: skip
      stencil: none
      bin: none
  (2) pair morse, perpetual, skip from (3)
      attributes: half, newton on
      pair build: skip
      stencil: none
      bin: none
  (3) neighbor class addition, perpetual
      attributes: half, newton on
      pair build: half/bin/newton
      stencil: half/bin/3d/newton
      bin: standard
Per MPI rank memory allocation (min/avg/max) = 13.39 | 13.39 | 13.39 Mbytes
Step Temp E_pair 
  255000   0.99299692 -0.027865718 
  270000    1.0013698 -0.034117672 
Loop time of 4.13663 on 1 procs for 15000 steps with 2042 atoms

group swunmark2k id  254 255 256 288 289 292 293 491 495 806 807 808 811 812 813 814 816 817 819 823 825 826 827 830 1274 1275 1287 1534 1535 1537 1539 1699 1735 1752 1754 1901 1904 1906 1907 1909 1910 1911 1958
43 atoms in group swunmark2k
set group swunmark2k type 6
  43 settings made for type
group swunmark2k delete
group swk2unmark id  25 49 296 297 305 312 473 503 579 1081 1184 1197 1264 1267 1269 1284 1291 1741 1954
19 atoms in group swk2unmark
set group swk2unmark type 1
  19 settings made for type
group swk2unmark delete
run 15000 post no
Neighbor list info ...
  update every 1 steps, delay 1 steps, check yes
  max neighbors/atom: 2000, page size: 100000
  master list distance cutoff = 3.7
  ghost atom cutoff = 3.7
  binsize = 1.85, bins = 55 55 55
  3 neighbor lists, perpetual/occasional/extra = 3 0 0
  (1) pair lj/cut, perpetual, skip from (3)
      attributes: half, newton on
      pair build: skip
      stencil: none
      bin: none
  (2) pair morse, perpetual, skip from (3)
      attributes: half, newton on
      pair build: skip
      stencil: none
      bin: none
  (3) neighbor class addition, perpetual
      attributes: half, newton on
      pair build: half/bin/newton
      stencil: half/bin/3d/newton
      bin: standard
Per MPI rank memory allocation (min/avg/max) = 13.39 | 13.39 | 13.39 Mbytes
Step Temp E_pair 
  270000    1.0013698 -0.033744392 
  285000    1.0113932 -0.035612313 
Loop time of 4.16567 on 1 procs for 15000 steps with 2042 atoms

group swunmark2k id  260 261 262 266 296 297 302 829 832 1272 1278 1531 1536 1541 1542 1678 1679 1681 1690 1691 1694 1695 1705 1707 1708 1709 1725 1729 1731 1733 1736 1763 1965 1969
34 atoms in group swunmark2k
set group swunmark2k type 6
  34 settings made for type
group swunmark2k delete
group swATACON2OFF id  1700
1 atoms in group swATACON2OFF
set group swATACON2OFF type 5
  1 settings made for type
group swATACON2OFF delete
group swk2unmark id  294 303 596 814 825 827 835 885 1313 1607 1677 1697 1743 1746 1762 1898 1910 1936 1937 1939 1964 1968
22 atoms in group swk2unmark
set group swk2unmark type 1
  22 settings made for type
group swk2unmark delete
run 15000 post no
Neighbor list info ...
  update every 1 steps, delay 1 steps, check yes
  max neighbors/atom: 2000, page size: 100000
  master list distance cutoff = 3.7
  ghost atom cutoff = 3.7
  binsize = 1.85, bins = 55 55 55
  3 neighbor lists, perpetual/occasional/extra = 3 0 0
  (1) pair lj/cut, perpetual, skip from (3)
      attributes: half, newton on
      pair build: skip
      stencil: none
      bin: none
  (2) pair morse, perpetual, skip from (3)
      attributes: half, newton on
      pair build: skip
      stencil: none
      bin: none
  (3) neighbor class addition, perpetual
      attributes: half, newton on
      pair build: half/bin/newton
      stencil: half/bin/3d/newton
      bin: standard
Per MPI rank memory allocation (min/avg/max) = 13.39 | 13.39 | 13.39 Mbytes
Step Temp E_pair 
  285000    1.0113932 -0.034193078 
  300000   0.99295828 -0.035325943 
Loop time of 4.1626 on 1 procs for 15000 steps with 2042 atoms

group swATACOFF2ON id  1700
1 atoms in group swATACOFF2ON
set group swATACOFF2ON type 7
  1 settings made for type
group swATACOFF2ON delete
group swunmark2k id  162 257 263 264 267 303 304 311 314 315 461 463 464 489 490 494 810 814 815 818 835 843 1066 1067 1069 1071 1072 1074 1284 1696 1743 1944 1972 1973
34 atoms in group swunmark2k
set group swunmark2k type 6
  34 settings made for type
group swunmark2k delete
group swk2unmark id  125 276 496 507 513 807 830 831 1202 1262 1273 1289 1531 1536 1688 1695 1735 1763 1764 1969
20 atoms in group swk2unmark
set group swk2unmark type 1
  20 settings made for type
group swk2unmark delete
run 15000 post no
Neighbor list info ...
  update every 1 steps, delay 1 steps, check yes
  max neighbors/atom: 2000, page size: 100000
  master list distance cutoff = 3.7
  ghost atom cutoff = 3.7
  binsize = 1.85, bins = 55 55 55
  3 neighbor lists, perpetual/occasional/extra = 3 0 0
  (1) pair lj/cut, perpetual, skip from (3)
      attributes: half, newton on
      pair build: skip
      stencil: none
      bin: none
  (2) pair morse, perpetual, skip from (3)
      attributes: half, newton on
      pair build: skip
      stencil: none
      bin: none
  (3) neighbor class addition, perpetual
      attributes: half, newton on
      pair build: half/bin/newton
      stencil: half/bin/3d/newton
      bin: standard
Per MPI rank memory allocation (min/avg/max) = 13.39 | 13.39 | 13.39 Mbytes
Step Temp E_pair 
  300000   0.99295828 -0.035325943 
  315000    1.0244962 -0.044253782 
Loop time of 4.15879 on 1 procs for 15000 steps with 2042 atoms

group swunmark2k id  259 294 305 459 462 496 801 802 803 805 1289 1291 1292 1295 1297 1298 1525 1526 1527 1538 1540 1544 1545 1692 1695 1702 1732 1734 1954 1964
30 atoms in group swunmark2k
set group swunmark2k type 6
  30 settings made for type
group swunmark2k delete
group swATACON2OFF id  1200
1 atoms in group swATACON2OFF
set group swATACON2OFF type 5
  1 settings made for type
group swATACON2OFF delete
group swk2unmark id  162 288 289 489 490 646 811 888 1012 1071 1084 1285 1316 1539 1701 1737 1738 1785 1789 1833 1940 1946 1966
23 atoms in group swk2unmark
set group swk2unmark type 1
  23 settings made for type
group swk2unmark delete
run 15000 post no
Neighbor list info ...
  update every 1 steps, delay 1 steps, check yes
  max neighbors/atom: 2000, page size: 100000
  master list distance cutoff = 3.7
  ghost atom cutoff = 3.7
  binsize = 1.85, bins = 55 55 55
  3 neighbor lists, perpetual/occasional/extra = 3 0 0
  (1) pair lj/cut, perpetual, skip from (3)
      attributes: half, newton on
      pair build: skip
      stencil: none
      bin: none
  (2) pair morse, perpetual, skip from (3)
      attributes: half, newton on
      pair build: skip
      stencil: none
      bin: none
  (3) neighbor class addition, perpetual
      attributes: half, newton on
      pair build: half/bin/newton
      stencil: half/bin/3d/newton
      bin: standard
Per MPI rank memory allocation (min/avg/max) = 13.39 | 13.39 | 13.39 Mbytes
Step Temp E_pair 
  315000    1.0244962 -0.036538367 
  330000   0.97960946 -0.046294442 
Loop time of 4.1541 on 1 procs for 15000 steps with 2042 atoms

group swATACOFF2ON id  2000
1 atoms in group swATACOFF2ON
set group swATACOFF2ON type 7
  1 settings made for type
group swATACOFF2ON delete
group swunmark2k id  129 131 490 501 507 509 828 831 950 951 952 1008 1011 1016 1018 1285 1290 1304 1546 1697 1701 1712 1730 1738 1939 1946 1948 1952
28 atoms in group swunmark2k
set group swunmark2k type 6
  28 settings made for type
group swunmark2k delete
group swATACON2OFF id  300
1 atoms in group swATACON2OFF
set group swATACON2OFF type 5
  1 settings made for type
group swATACON2OFF delete
group swk2unmark id  261 264 302 303 582 597 817 829 1187 1192 1201 1268 1282 1305 1398 1399 1525 1535 1699 1760 1766 1809 1970
23 atoms in group swk2unmark
set group swk2unmark type 1
  23 settings made for type
group swk2unmark delete
run 15000 post no
Neighbor list info ...
  update every 1 steps, delay 1 steps, check yes
  max neighbors/atom: 2000, page size: 100000
  master list distance cutoff = 3.7
  ghost atom cutoff = 3.7
  binsize = 1.85, bins = 55 55 55
  3 neighbor lists, perpetual/occasional/extra = 3 0 0
  (1) pair lj/cut, perpetual, skip from (3)
      attributes: half, newton on
      pair build: skip
      stencil: none
      bin: none
  (2) pair morse, perpetual, skip from (3)
      attributes: half, newton on
      pair build: skip
      stencil: none
      bin: none
  (3) neighbor class addition, perpetual
      attributes: half, newton on
      pair build: half/bin/newton
      stencil: half/bin/3d/newton
      bin: standard
Per MPI rank memory allocation (min/avg/max) = 13.39 | 13.39 | 13.39 Mbytes
Step Temp E_pair 
  330000   0.97960946 -0.040524411 
  345000    1.0083008 -0.058700195 
Loop time of 4.13061 on 1 procs for 15000 steps with 2042 atoms

group swATACOFF2ON id  300 1300
2 atoms in group swATACOFF2ON
set group swATACOFF2ON type 7
  2 settings made for type
group swATACOFF2ON delete
group swunmark2k id  302 303 308 310 312 478 480 481 482 487 489 502 922 923 924 925 926 949 974 1012 1014 1015 1023 1029 1030 1031 1032 1036 1039 1110 1294 1296 1303 1535 1539 1547 1688 1689 1699 1735 1737 1805 1806 1807 1810 1813 1815 1817 1938 1940 1941 1950
52 atoms in group swunmark2k
set group swunmark2k type 6
  52 settings made for type
group swunmark2k delete
group swk2unmark id  459 494 802 834 843 892 939 951 1018 1035 1067 1186 1671 1678 1681 1690 1692 1697 1708 1909 1983
21 atoms in group swk2unmark
set group swk2unmark type 1
  21 settings made for type
group swk2unmark delete
run 15000 post no
Neighbor list info ...
  update every 1 steps, delay 1 steps, check yes
  max neighbors/atom: 2000, page size: 100000
  master list distance cutoff = 3.7
  ghost atom cutoff = 3.7
  binsize = 1.85, bins = 55 55 55
  3 neighbor lists, perpetual/occasional/extra = 3 0 0
  (1) pair lj/cut, perpetual, skip from (3)
      attributes: half, newton on
      pair build: skip
      stencil: none
      bin: none
  (2) pair morse, perpetual, skip from (3)
      attributes: half, newton on
      pair build: skip
      stencil: none
      bin: none
  (3) neighbor class addition, perpetual
      attributes: half, newton on
      pair build: half/bin/newton
      stencil: half/bin/3d/newton
      bin: standard
Per MPI rank memory allocation (min/avg/max) = 13.39 | 13.39 | 13.39 Mbytes
Step Temp E_pair 
  345000    1.0083008 -0.054138926 
  360000    1.0269622 -0.061176904 
Loop time of 4.16389 on 1 procs for 15000 steps with 2042 atoms

group swunmark2k id  171 174 176 178 179 181 483 485 494 783 784 785 788 789 790 834 951 953 954 957 1001 1009 1017 1018 1021 1026 1028 1035 1037 1273 1307 1536 1543 1690 1697 1724 1741 1808 1809
39 atoms in group swunmark2k
set group swunmark2k type 6
  39 settings made for type
group swunmark2k delete
group swk2unmark id  129 131 311 315 458 471 476 496 803 810 907 926 1034 1190 1204 1263 1266 1276 1277 1289 1293 1402 1535 1594 1679 1707 1736 1737 1807 1810 1840 1942
32 atoms in group swk2unmark
set group swk2unmark type 1
  32 settings made for type
group swk2unmark delete
run 15000 post no
Neighbor list info ...
  update every 1 steps, delay 1 steps, check yes
  max neighbors/atom: 2000, page size: 100000
  master list distance cutoff = 3.7
  ghost atom cutoff = 3.7
  binsize = 1.85, bins = 55 55 55
  3 neighbor lists, perpetual/occasional/extra = 3 0 0
  (1) pair lj/cut, perpetual, skip from (3)
      attributes: half, newton on
      pair build: skip
      stencil: none
      bin: none
  (2) pair morse, perpetual, skip from (3)
      attributes: half, newton on
      pair build: skip
      stencil: none
      bin: none
  (3) neighbor class addition, perpetual
      attributes: half, newton on
      pair build: half/bin/newton
      stencil: half/bin/3d/newton
      bin: standard
Per MPI rank memory allocation (min/avg/max) = 13.39 | 13.39 | 13.39 Mbytes
Step Temp E_pair 
  360000    1.0269622 -0.056183078 
  375000   0.99499145 -0.065009329 
Loop time of 4.1532 on 1 procs for 15000 steps with 2042 atoms

group swATACOFF2ON id  500
1 atoms in group swATACOFF2ON
set group swATACOFF2ON type 7
  1 settings made for type
group swATACOFF2ON delete
group swunmark2k id  311 315 316 488 496 503 504 817 940 941 943 944 945 946 1010 1020 1022 1043 1045 1046 1054 1055 1056 1061 1062 1065 1276 1289 1293 1327 1328 1329 1331 1332 1333 1335 1336 1535 1674 1677 1703 1737 1812 1816 1818 1979 1980 1981 1982 1986 1988 1991
52 atoms in group swunmark2k
set group swunmark2k type 6
  52 settings made for type
group swunmark2k delete
group swATACON2OFF id  300
1 atoms in group swATACON2OFF
set group swATACON2OFF type 5
  1 settings made for type
group swATACON2OFF delete
group swk2unmark id  286 292 293 297 463 805 835 851 953 954 1009 1273 1280 1283 1310 1393 1543 1688 1702 1729 1744 1757 1811 1906 1940 1954 1963 1964
28 atoms in group swk2unmark
set group swk2unmark type 1
  28 settings made for type
group swk2unmark delete
run 15000 post no
Neighbor list info ...
  update every 1 steps, delay 1 steps, check yes
  max neighbors/atom: 2000, page size: 100000
  master list distance cutoff = 3.7
  ghost atom cutoff = 3.7
  binsize = 1.85, bins = 55 55 55
  3 neighbor lists, perpetual/occasional/extra = 3 0 0
  (1) pair lj/cut, perpetual, skip from (3)
      attributes: half, newton on
      pair build: skip
      stencil: none
      bin: none
  (2) pair morse, perpetual, skip from (3)
      attributes: half, newton on
      pair build: skip
      stencil: none
      bin: none
  (3) neighbor class addition, perpetual
      attributes: half, newton on
      pair build: half/bin/newton
      stencil: half/bin/3d/newton
      bin: standard
Per MPI rank memory allocation (min/avg/max) = 13.39 | 13.39 | 13.39 Mbytes
Step Temp E_pair 
  375000   0.99499145 -0.062147026 
  390000    1.0044985 -0.062915356 
Loop time of 4.14924 on 1 procs for 15000 steps with 2042 atoms

group swunmark2k id  297 446 447 449 471 510 845 850 942 999 1003 1004 1005 1025 1027 1038 1041 1277 1532 1533 1543 1548 1550 1551 1553 1555 1556 1684 1685 1692 1717 1719 1720 1726 1729 1736 1807 1811 1819 1841 1843 1844 1845 1846 1848 1966 1967 1969 1970 1975 1976
51 atoms in group swunmark2k
set group swunmark2k type 6
  51 settings made for type
group swunmark2k delete
group swk2unmark id  42 298 310 478 840 952 1014 1035 1046 1189 1214 1270 1276 1292 1304 1384 1538 1539 1691 1699 1731 1742 1904 1923 1950 1953 1960 1971
28 atoms in group swk2unmark
set group swk2unmark type 1
  28 settings made for type
group swk2unmark delete
run 15000 post no
Neighbor list info ...
  update every 1 steps, delay 1 steps, check yes
  max neighbors/atom: 2000, page size: 100000
  master list distance cutoff = 3.7
  ghost atom cutoff = 3.7
  binsize = 1.85, bins = 55 55 55
  3 neighbor lists, perpetual/occasional/extra = 3 0 0
  (1) pair lj/cut, perpetual, skip from (3)
      attributes: half, newton on
      pair build: skip
      stencil: none
      bin: none
  (2) pair morse, perpetual, skip from (3)
      attributes: half, newton on
      pair build: skip
      stencil: none
      bin: none
  (3) neighbor class addition, perpetual
      attributes: half, newton on
      pair build: half/bin/newton
      stencil: half/bin/3d/newton
      bin: standard
Per MPI rank memory allocation (min/avg/max) = 13.39 | 13.39 | 13.39 Mbytes
Step Temp E_pair 
  390000    1.0044985 -0.054572579 
  400000    1.0026314  -0.06302815 
  405000    1.0016742 -0.057949124 
Loop time of 4.14039 on 1 procs for 15000 steps with 2042 atoms

group swATACOFF2ON id  300
1 atoms in group swATACOFF2ON
set group swATACOFF2ON type 7
  1 settings made for type
group swATACOFF2ON delete
group swunmark2k id  291 292 293 298 310 456 467 486 791 794 796 797 939 948 1006 1009 1273 1276 1283 1292 1529 1538 1688 1691 1721 1723 1909 1910 1916 1950
30 atoms in group swunmark2k
set group swunmark2k type 6
  30 settings made for type
group swunmark2k delete
group swATACON2OFF id  1900 2000
2 atoms in group swATACON2OFF
set group swATACON2OFF type 5
  2 settings made for type
group swATACON2OFF delete
group swk2unmark id  181 266 492 509 1015 1018 1020 1028 1029 1069 1082 1285 1328 1527 1555 1737 1752 1806 1815 1818 1843 1869 1919 1979
24 atoms in group swk2unmark
set group swk2unmark type 1
  24 settings made for type
group swk2unmark delete
run 15000 post no
Neighbor list info ...
  update every 1 steps, delay 1 steps, check yes
  max neighbors/atom: 2000, page size: 100000
  master list distance cutoff = 3.7
  ghost atom cutoff = 3.7
  binsize = 1.85, bins = 55 55 55
  3 neighbor lists, perpetual/occasional/extra = 3 0 0
  (1) pair lj/cut, perpetual, skip from (3)
      attributes: half, newton on
      pair build: skip
      stencil: none
      bin: none
  (2) pair morse, perpetual, skip from (3)
      attributes: half, newton on
      pair build: skip
      stencil: none
      bin: none
  (3) neighbor class addition, perpetual
      attributes: half, newton on
      pair build: half/bin/newton
      stencil: half/bin/3d/newton
      bin: standard
Per MPI rank memory allocation (min/avg/max) = 13.39 | 13.39 | 13.39 Mbytes
Step Temp E_pair 
  405000    1.0016742 -0.054878521 
  420000    1.0159151 -0.059205574 
Loop time of 4.11845 on 1 procs for 15000 steps with 2042 atoms

group swunmark2k id  353 354 355 359 361 364 365 444 484 803 804 805 807 809 810 811 822 824 827 835 882 886 953 954 997 1002 1007 1051 1052 1270 1285 1521 1522 1523 1525 1530 1531 1699 1722 1797 1798 1799 1806 1810 1815 1906 1912 1913 1998 1999
50 atoms in group swunmark2k
set group swunmark2k type 6
  50 settings made for type
group swunmark2k delete
group swk2unmark id  176 296 309 311 315 490 785 788 838 1005 1026 1072 1265 1277 1290 1329 1331 1403 1450 1538 1689 1712 1745 1836 1961 1988
26 atoms in group swk2unmark
set group swk2unmark type 1
  26 settings made for type
group swk2unmark delete
run 15000 post no
Neighbor list info ...
  update every 1 steps, delay 1 steps, check yes
  max neighbors/atom: 2000, page size: 100000
  master list distance cutoff = 3.7
  ghost atom cutoff = 3.7
  binsize = 1.85, bins = 55 55 55
  3 neighbor lists, perpetual/occasional/extra = 3 0 0
  (1) pair lj/cut, perpetual, skip from (3)
      attributes: half, newton on
      pair build: skip
      stencil: none
      bin: none
  (2) pair morse, perpetual, skip from (3)
      attributes: half, newton on
      pair build: skip
      stencil: none
      bin: none
  (3) neighbor class addition, perpetual
      attributes: half, newton on
      pair build: half/bin/newton
      stencil: half/bin/3d/newton
      bin: standard
Per MPI rank memory allocation (min/avg/max) = 13.39 | 13.39 | 13.39 Mbytes
Step Temp E_pair 
  420000    1.0159151 -0.058131078 
  435000   0.97665489 -0.070980557 
Loop time of 4.13932 on 1 procs for 15000 steps with 2042 atoms

group swATACOFF2ON id  1000
1 atoms in group swATACOFF2ON
set group swATACOFF2ON type 7
  1 settings made for type
group swATACOFF2ON delete
group swunmark2k id  236 237 238 284 290 311 475 476 478 479 505 506 820 821 838 840 938 955 993 994 998 1005 1018 1269 1282 1707 1708 1731 1818 1920 1924 1926 1927 1928 1942 1953 1954 1961 1994 1995 1996
41 atoms in group swunmark2k
set group swunmark2k type 6
  41 settings made for type
group swunmark2k delete
group swATACON2OFF id  500
1 atoms in group swATACON2OFF
set group swATACON2OFF type 5
  1 settings made for type
group swATACON2OFF delete
group swk2unmark id  456 486 493 504 797 806 811 813 837 847 940 941 1007 1052 1065 1074 1191 1281 1525 1553 1739 1743 1806 1809 1841 1878 1907 1969 1970
29 atoms in group swk2unmark
set group swk2unmark type 1
  29 settings made for type
group swk2unmark delete
run 15000 post no
Neighbor list info ...
  update every 1 steps, delay 1 steps, check yes
  max neighbors/atom: 2000, page size: 100000
  master list distance cutoff = 3.7
  ghost atom cutoff = 3.7
  binsize = 1.85, bins = 55 55 55
  3 neighbor lists, perpetual/occasional/extra = 3 0 0
  (1) pair lj/cut, perpetual, skip from (3)
      attributes: half, newton on
      pair build: skip
      stencil: none
      bin: none
  (2) pair morse, perpetual, skip from (3)
      attributes: half, newton on
      pair build: skip
      stencil: none
      bin: none
  (3) neighbor class addition, perpetual
      attributes: half, newton on
      pair build: half/bin/newton
      stencil: half/bin/3d/newton
      bin: standard
Per MPI rank memory allocation (min/avg/max) = 13.39 | 13.39 | 13.39 Mbytes
Step Temp E_pair 
  435000   0.97665489 -0.068896485 
  450000    1.0251085 -0.065800014 
Loop time of 4.18119 on 1 procs for 15000 steps with 2042 atoms

group swunmark2k id  180 182 183 215 216 217 222 223 224 225 227 228 229 231 233 252 253 258 309 358 486 504 940 995 996 1014 1015 1020 1265 1267 1280 1281 1312 1314 1519 1520 1525 1806 1822 1885 1887 1889 1919 1923
44 atoms in group swunmark2k
set group swunmark2k type 6
  44 settings made for type
group swunmark2k delete
group swk2unmark id  3 284 292 355 364 482 507 783 791 794 808 943 944 1013 1036 1110 1269 1333 1534 1544 1545 1682 1690 1692 1693 1696 1747 1810 1816 1818 1819 1844 1911 1924 1959 1987 1994 1999
38 atoms in group swk2unmark
set group swk2unmark type 1
  38 settings made for type
group swk2unmark delete
run 15000 post no
Neighbor list info ...
  update every 1 steps, delay 1 steps, check yes
  max neighbors/atom: 2000, page size: 100000
  master list distance cutoff = 3.7
  ghost atom cutoff = 3.7
  binsize = 1.85, bins = 55 55 55
  3 neighbor lists, perpetual/occasional/extra = 3 0 0
  (1) pair lj/cut, perpetual, skip from (3)
      attributes: half, newton on
      pair build: skip
      stencil: none
      bin: none
  (2) pair morse, perpetual, skip from (3)
      attributes: half, newton on
      pair build: skip
      stencil: none
      bin: none
  (3) neighbor class addition, perpetual
      attributes: half, newton on
      pair build: half/bin/newton
      stencil: half/bin/3d/newton
      bin: standard
Per MPI rank memory allocation (min/avg/max) = 13.39 | 13.39 | 13.39 Mbytes
Step Temp E_pair 
  450000    1.0251085 -0.061888981 
  465000   0.99739256 -0.058468053 
Loop time of 4.17931 on 1 procs for 15000 steps with 2042 atoms

group swOFF2ON id  2001
1 atoms in group swOFF2ON
set group swOFF2ON type 2
  1 settings made for type
group swOFF2ON delete
group swATACOFF2ON id  500 1500
2 atoms in group swATACOFF2ON
set group swATACOFF2ON type 7
  2 settings made for type
group swATACOFF2ON delete
group swunmark2k id  221 235 269 270 271 274 275 276 279 280 282 492 507 509 511 512 513 927 934 937 941 990 1019 1044 1046 1048 1049 1052 1109 1110 1111 1301 1302 1304 1493 1494 1495 1497 1498 1499 1501 1503 1505 1507 1509 1510 1511 1514 1515 1516 1517 1527 1565 1689 1690 1696 1711 1712 1715 1809 1810 1816 1819 1821 1905 1907 1908 1911 1914 1915 1917 1960 1971
73 atoms in group swunmark2k
set group swunmark2k type 6
  73 settings made for type
group swunmark2k delete
group swk2unmark id  178 180 215 294 446 464 476 478 505 510 629 790 826 832 881 889 942 953 955 1003 1005 1055 1056 1205 1261 1278 1298 1608 1674 1736 1807 1814 1954 1955 1973 1978
36 atoms in group swk2unmark
set group swk2unmark type 1
  36 settings made for type
group swk2unmark delete
run 15000 post no
Neighbor list info ...
  update every 1 steps, delay 1 steps, check yes
  max neighbors/atom: 2000, page size: 100000
  master list distance cutoff = 3.7
  ghost atom cutoff = 3.7
  binsize = 1.85, bins = 55 55 55
  3 neighbor lists, perpetual/occasional/extra = 3 0 0
  (1) pair lj/cut, perpetual, skip from (3)
      attributes: half, newton on
      pair build: skip
      stencil: none
      bin: none
  (2) pair morse, perpetual, skip from (3)
      attributes: half, newton on
      pair build: skip
      stencil: none
      bin: none
  (3) neighbor class addition, perpetual
      attributes: half, newton on
      pair build: half/bin/newton
      stencil: half/bin/3d/newton
      bin: standard
Per MPI rank memory allocation (min/avg/max) = 13.39 | 13.39 | 13.39 Mbytes
Step Temp E_pair 
  465000   0.99739256 -0.051993403 
  480000    1.0040191  -0.07424269 
Loop time of 4.15348 on 1 procs for 15000 steps with 2042 atoms

group swunmark2k id  240 241 243 245 246 247 261 265 278 281 932 933 935 943 1024 1264 1266 1268 1269 1298 1299 1512 1524 1549 1555 1681 1683 1686 1693 1704 1713 1714 1820 1954 1955 1964 1997
37 atoms in group swunmark2k
set group swunmark2k type 6
  37 settings made for type
group swunmark2k delete
group swk2unmark id  179 221 236 267 271 310 467 502 511 784 796 827 838 995 997 1001 1030 1283 1309 1314 1318 1505 1547 1592 1687 1690 1695 1701 1717 1722 1750 1942 1962 1995
34 atoms in group swk2unmark
set group swk2unmark type 1
  34 settings made for type
group swk2unmark delete
run 15000 post no
Neighbor list info ...
  update every 1 steps, delay 1 steps, check yes
  max neighbors/atom: 2000, page size: 100000
  master list distance cutoff = 3.7
  ghost atom cutoff = 3.7
  binsize = 1.85, bins = 55 55 55
  3 neighbor lists, perpetual/occasional/extra = 3 0 0
  (1) pair lj/cut, perpetual, skip from (3)
      attributes: half, newton on
      pair build: skip
      stencil: none
      bin: none
  (2) pair morse, perpetual, skip from (3)
      attributes: half, newton on
      pair build: skip
      stencil: none
      bin: none
  (3) neighbor class addition, perpetual
      attributes: half, newton on
      pair build: half/bin/newton
      stencil: half/bin/3d/newton
      bin: standard
Per MPI rank memory allocation (min/avg/max) = 13.39 | 13.39 | 13.39 Mbytes
Step Temp E_pair 
  480000    1.0040191 -0.073460867 
  495000   0.94921407 -0.067231105 
Loop time of 4.16177 on 1 procs for 15000 steps with 2042 atoms

group swunmark2k id  234 236 248 249 250 284 286 315 317 318 320 321 493 874 875 926 929 942 952 955 991 992 995 997 1013 1079 1081 1277 1290 1305 1310 1349 1350 1662 1663 1664 1665 1670 1672 1673 1679 1682 1690 1701 1804 1807 1814
47 atoms in group swunmark2k
set group swunmark2k type 6
  47 settings made for type
group swunmark2k delete
group swk2unmark id  253 282 814 886 925 931 932 935 939 946 1051 1061 1179 1260 1269 1273 1291 1292 1501 1517 1676 1689 1698 1729 1815 1816 1822 1887 1908 1912 1917 1938 1939 1954 1971
35 atoms in group swk2unmark
set group swk2unmark type 1
  35 settings made for type
group swk2unmark delete
run 15000 post no
Neighbor list info ...
  update every 1 steps, delay 1 steps, check yes
  max neighbors/atom: 2000, page size: 100000
  master list distance cutoff = 3.7
  ghost atom cutoff = 3.7
  binsize = 1.85, bins = 55 55 55
  3 neighbor lists, perpetual/occasional/extra = 3 0 0
  (1) pair lj/cut, perpetual, skip from (3)
      attributes: half, newton on
      pair build: skip
      stencil: none
      bin: none
  (2) pair morse, perpetual, skip from (3)
      attributes: half, newton on
      pair build: skip
      stencil: none
      bin: none
  (3) neighbor class addition, perpetual
      attributes: half, newton on
      pair build: half/bin/newton
      stencil: half/bin/3d/newton
      bin: standard
Per MPI rank memory allocation (min/avg/max) = 13.39 | 13.39 | 13.39 Mbytes
Step Temp E_pair 
  495000   0.94921407 -0.058085932 
  500000   0.99031557 -0.063227408 
  510000    1.0031298 -0.062456597 
Loop time of 4.16097 on 1 procs for 15000 steps with 2042 atoms

group swunmark2k id  230 232 264 271 490 502 505 510 511 956 958 983 985 987 988 1003 1005 1028 1050 1182 1269 1273 1471 1517 1518 1680 1702 1736 1737 1752 1755 1757 1816 1818 1822 1823 1824 1825 1942 1962
40 atoms in group swunmark2k
set group swunmark2k type 6
  40 settings made for type
group swunmark2k delete
group swATACON2OFF id  1300
1 atoms in group swATACON2OFF
set group swATACON2OFF type 5
  1 settings made for type
group swATACON2OFF delete
group swk2unmark id  249 257 263 270 279 281 295 306 354 479 481 487 512 810 841 848 937 995 1004 1011 1032 1039 1081 1105 1193 1285 1286 1523 1526 1543 1550 1662 1663 1682 1697 1707 1714 1727 1753 1808 1838 1884 1926 1946 1947 1986 1991
47 atoms in group swk2unmark
set group swk2unmark type 1
  47 settings made for type
group swk2unmark delete
run 15000 post no
Neighbor list info ...
  update every 1 steps, delay 1 steps, check yes
  max neighbors/atom: 2000, page size: 100000
  master list distance cutoff = 3.7
  ghost atom cutoff = 3.7
  binsize = 1.85, bins = 55 55 55
  3 neighbor lists, perpetual/occasional/extra = 3 0 0
  (1) pair lj/cut, perpetual, skip from (3)
      attributes: half, newton on
      pair build: skip
      stencil: none
      bin: none
  (2) pair morse, perpetual, skip from (3)
      attributes: half, newton on
      pair build: skip
      stencil: none
      bin: none
  (3) neighbor class addition, perpetual
      attributes: half, newton on
      pair build: half/bin/newton
      stencil: half/bin/3d/newton
      bin: standard
Per MPI rank memory allocation (min/avg/max) = 13.39 | 13.39 | 13.39 Mbytes
Step Temp E_pair 
  510000    1.0031298 -0.058039558 
  525000   0.98545983 -0.065783027 
Loop time of 4.16701 on 1 procs for 15000 steps with 2042 atoms

group swunmark2k id  226 239 266 267 268 270 279 453 459 487 932 935 936 937 1007 1055 1056 1058 1069 1071 1072 1077 1308 1682 1687 1695 1762 1780 1781 1784 1936 1937 1938 1939 1946 1947 1954 1959
38 atoms in group swunmark2k
set group swunmark2k type 6
  38 settings made for type
group swunmark2k delete
group swk2unmark id  216 261 264 265 291 297 319 492 850 927 954 1066 1109 1268 1272 1284 1293 1299 1301 1350 1493 1510 1517 1522 1686 1709 1732 1752 1799 1804 1810 1818 1821 1914 1921 1951 1960 1965 1980
39 atoms in group swk2unmark
set group swk2unmark type 1
  39 settings made for type
group swk2unmark delete
run 15000 post no
Neighbor list info ...
  update every 1 steps, delay 1 steps, check yes
  max neighbors/atom: 2000, page size: 100000
  master list distance cutoff = 3.7
  ghost atom cutoff = 3.7
  binsize = 1.85, bins = 55 55 55
  3 neighbor lists, perpetual/occasional/extra = 3 0 0
  (1) pair lj/cut, perpetual, skip from (3)
      attributes: half, newton on
      pair build: skip
      stencil: none
      bin: none
  (2) pair morse, perpetual, skip from (3)
      attributes: half, newton on
      pair build: skip
      stencil: none
      bin: none
  (3) neighbor class addition, perpetual
      attributes: half, newton on
      pair build: half/bin/newton
      stencil: half/bin/3d/newton
      bin: standard
Per MPI rank memory allocation (min/avg/max) = 13.39 | 13.39 | 13.39 Mbytes
Step Temp E_pair 
  525000   0.98545983 -0.051919365 
  540000    1.0198022 -0.064794567 
Loop time of 4.16443 on 1 procs for 15000 steps with 2042 atoms

group swON2OFF id  2001
1 atoms in group swON2OFF
set group swON2OFF type 8
  1 settings made for type
group swON2OFF delete
group swATACOFF2ON id  1300
1 atoms in group swATACOFF2ON
set group swATACOFF2ON type 7
  1 settings made for type
group swATACOFF2ON delete
group swunmark2k id  242 281 287 448 450 451 452 456 482 517 518 519 521 1001 1011 1047 1053 1074 1075 1076 1272 1293 1301 1505 1506 1522 1526 1689 1707 1709 1729 1772 1818
33 atoms in group swunmark2k
set group swunmark2k type 6
  33 settings made for type
group swunmark2k delete
group swk2unmark id  226 245 276 449 594 817 844 924 926 935 942 985 992 1019 1028 1041 1266 1276 1288 1303 1305 1525 1679 1694 1704 1765 1807 1809 1812 1916 1937 1944 1948 1953
34 atoms in group swk2unmark
set group swk2unmark type 1
  34 settings made for type
group swk2unmark delete
run 15000 post no
Neighbor list info ...
  update every 1 steps, delay 1 steps, check yes
  max neighbors/atom: 2000, page size: 100000
  master list distance cutoff = 3.7
  ghost atom cutoff = 3.7
  binsize = 1.85, bins = 55 55 55
  3 neighbor lists, perpetual/occasional/extra = 3 0 0
  (1) pair lj/cut, perpetual, skip from (3)
      attributes: half, newton on
      pair build: skip
      stencil: none
      bin: none
  (2) pair morse, perpetual, skip from (3)
      attributes: half, newton on
      pair build: skip
      stencil: none
      bin: none
  (3) neighbor class addition, perpetual
      attributes: half, newton on
      pair build: half/bin/newton
      stencil: half/bin/3d/newton
      bin: standard
Per MPI rank memory allocation (min/avg/max) = 13.39 | 13.39 | 13.39 Mbytes
Step Temp E_pair 
  540000    1.0198022   -0.0671586 
  555000   0.98292797 -0.069140136 
Loop time of 4.16475 on 1 procs for 15000 steps with 2042 atoms

group swunmark2k id  210 214 218 219 220 226 251 282 468 492 1051 1276 1299 1342 1484 1485 1486 1501 1517 1523 1528 1534 1538 1539 1686 1694 1739 1742 1743 1760 1774 1809 1812 1932 1933 1934 1940 1951 1953 1960
40 atoms in group swunmark2k
set group swunmark2k type 6
  40 settings made for type
group swunmark2k delete
group swk2unmark id  132 183 223 267 271 274 302 462 495 938 947 948 1012 1025 1053 1264 1304 1332 1335 1458 1471 1495 1509 1518 1683 1688 1689 1711 1734 1740 1741 1818 1915 1945 1957 1962 1964 1996
38 atoms in group swk2unmark
set group swk2unmark type 1
  38 settings made for type
group swk2unmark delete
run 15000 post no
Neighbor list info ...
  update every 1 steps, delay 1 steps, check yes
  max neighbors/atom: 2000, page size: 100000
  master list distance cutoff = 3.7
  ghost atom cutoff = 3.7
  binsize = 1.85, bins = 55 55 55
  3 neighbor lists, perpetual/occasional/extra = 3 0 0
  (1) pair lj/cut, perpetual, skip from (3)
      attributes: half, newton on
      pair build: skip
      stencil: none
      bin: none
  (2) pair morse, perpetual, skip from (3)
      attributes: half, newton on
      pair build: skip
      stencil: none
      bin: none
  (3) neighbor class addition, perpetual
      attributes: half, newton on
      pair build: half/bin/newton
      stencil: half/bin/3d/newton
      bin: standard
Per MPI rank memory allocation (min/avg/max) = 13.39 | 13.39 | 13.39 Mbytes
Step Temp E_pair 
  555000   0.98292797 -0.061828556 
  570000     1.020657 -0.075540543 
Loop time of 4.1682 on 1 procs for 15000 steps with 2042 atoms

group swunmark2k id  267 274 283 474 477 481 877 878 881 918 954 959 960 961 963 964 966 968 969 984 1012 1019 1025 1040 1264 1303 1518 1525 1543 1544 1545 1639 1641 1644 1646 1688 1692 1698 1732 1734 1740 1745 1750 1752 1753 1765 1815 1818 1827 1828 1945 1957 1989 1992 1993 1994 1996
57 atoms in group swunmark2k
set group swunmark2k type 6
  57 settings made for type
group swunmark2k delete
group swk2unmark id  228 237 247 260 272 278 305 312 452 497 504 518 577 822 929 951 994 996 1007 1048 1271 1273 1274 1281 1294 1307 1485 1486 1534 1542 1686 1687 1724 1756 1905 1998
36 atoms in group swk2unmark
set group swk2unmark type 1
  36 settings made for type
group swk2unmark delete
run 15000 post no
Neighbor list info ...
  update every 1 steps, delay 1 steps, check yes
  max neighbors/atom: 2000, page size: 100000
  master list distance cutoff = 3.7
  ghost atom cutoff = 3.7
  binsize = 1.85, bins = 55 55 55
  3 neighbor lists, perpetual/occasional/extra = 3 0 0
  (1) pair lj/cut, perpetual, skip from (3)
      attributes: half, newton on
      pair build: skip
      stencil: none
      bin: none
  (2) pair morse, perpetual, skip from (3)
      attributes: half, newton on
      pair build: skip
      stencil: none
      bin: none
  (3) neighbor class addition, perpetual
      attributes: half, newton on
      pair build: half/bin/newton
      stencil: half/bin/3d/newton
      bin: standard
Per MPI rank memory allocation (min/avg/max) = 13.39 | 13.39 | 13.39 Mbytes
Step Temp E_pair 
  570000     1.020657  -0.07001418 
  585000   0.97997349 -0.074975289 
Loop time of 4.1714 on 1 procs for 15000 steps with 2042 atoms

group swunmark2k id  211 213 223 265 272 460 495 497 516 688 689 690 691 693 694 701 869 1039 1041 1292 1294 1337 1339 1346 1348 1495 1496 1502 1504 1542 1550 1585 1586 1587 1592 1593 1594 1602 1603 1608 1609 1632 1689 1697 1724 1727 1766 1962 1990 1995 1998 1999
52 atoms in group swunmark2k
set group swunmark2k type 6
  52 settings made for type
group swunmark2k delete
group swk2unmark id  226 231 235 248 317 318 461 501 502 503 804 818 821 840 950 993 1001 1022 1050 1196 1282 1505 1543 1672 1691 1703 1730 1732 1733 1819 1822 1824 1907 1932 1941
35 atoms in group swk2unmark
set group swk2unmark type 1
  35 settings made for type
group swk2unmark delete
run 15000 post no
Neighbor list info ...
  update every 1 steps, delay 1 steps, check yes
  max neighbors/atom: 2000, page size: 100000
  master list distance cutoff = 3.7
  ghost atom cutoff = 3.7
  binsize = 1.85, bins = 55 55 55
  3 neighbor lists, perpetual/occasional/extra = 3 0 0
  (1) pair lj/cut, perpetual, skip from (3)
      attributes: half, newton on
      pair build: skip
      stencil: none
      bin: none
  (2) pair morse, perpetual, skip from (3)
      attributes: half, newton on
      pair build: skip
      stencil: none
      bin: none
  (3) neighbor class addition, perpetual
      attributes: half, newton on
      pair build: half/bin/newton
      stencil: half/bin/3d/newton
      bin: standard
Per MPI rank memory allocation (min/avg/max) = 13.39 | 13.39 | 13.39 Mbytes
Step Temp E_pair 
  585000   0.97997349 -0.073872188 
  600000   0.98864313 -0.081482661 
Loop time of 4.174 on 1 procs for 15000 steps with 2042 atoms

group swunmark2k id  271 276 278 479 975 978 979 982 992 993 1028 1029 1042 1048 1050 1059 1116 1258 1261 1263 1266 1268 1278 1288 1291 1315 1316 1343 1505 1508 1552 1618 1619 1621 1623 1624 1703 1710 1722 1730 1733 1764 1807 1808 1810 1922 1926 1937 1941 1944 1987 1988
52 atoms in group swunmark2k
set group swunmark2k type 6
  52 settings made for type
group swunmark2k delete
group swk2unmark id  246 255 267 269 270 290 486 489 496 505 820 846 881 908 918 937 1023 1025 1033 1110 1185 1272 1276 1308 1325 1511 1533 1715 1723 1725 1750 1752 1784 1827 1906 1927 1943 1950 1990
39 atoms in group swk2unmark
set group swk2unmark type 1
  39 settings made for type
group swk2unmark delete
run 15000 post no
Neighbor list info ...
  update every 1 steps, delay 1 steps, check yes
  max neighbors/atom: 2000, page size: 100000
  master list distance cutoff = 3.7
  ghost atom cutoff = 3.7
  binsize = 1.85, bins = 55 55 55
  3 neighbor lists, perpetual/occasional/extra = 3 0 0
  (1) pair lj/cut, perpetual, skip from (3)
      attributes: half, newton on
      pair build: skip
      stencil: none
      bin: none
  (2) pair morse, perpetual, skip from (3)
      attributes: half, newton on
      pair build: skip
      stencil: none
      bin: none
  (3) neighbor class addition, perpetual
      attributes: half, newton on
      pair build: half/bin/newton
      stencil: half/bin/3d/newton
      bin: standard
Per MPI rank memory allocation (min/avg/max) = 13.39 | 13.39 | 13.39 Mbytes
Step Temp E_pair 
  600000   0.98864313  -0.08029678 
  615000   0.97916502 -0.078802757 
Loop time of 4.15043 on 1 procs for 15000 steps with 2042 atoms

group swATACOFF2ON id  1600 2000
2 atoms in group swATACOFF2ON
[...]
  (1) pair lj/cut, perpetual, skip from (3)
      attributes: half, newton on
      pair build: skip
      stencil: none
      bin: none
  (2) pair morse, perpetual, skip from (3)
      attributes: half, newton on
      pair build: skip
      stencil: none
      bin: none
  (3) neighbor class addition, perpetual
      attributes: half, newton on
      pair build: half/bin/newton
      stencil: half/bin/3d/newton
      bin: standard
Per MPI rank memory allocation (min/avg/max) = 13.39 | 13.39 | 13.39 Mbytes
Step Temp E_pair 
 9810000    0.9697804 -0.087113011 
 9825000    0.9931596 -0.075381965 
Loop time of 4.134 on 1 procs for 15000 steps with 2042 atoms

group swOFF2ON id  2001
1 atoms in group swOFF2ON
set group swOFF2ON type 2
  1 settings made for type
group swOFF2ON delete
group swunmark2k id  68 213 226 227 296 425 445 478 482 521 753 769 808 811 814 855 867 876 877 881 883 1193 1263 1264 1265 1266 1268 1645 1797 1829 1836
31 atoms in group swunmark2k
set group swunmark2k type 6
  31 settings made for type
group swunmark2k delete
group swk2unmark id  77 185 201 208 216 293 315 325 330 405 423 427 430 434 444 447 455 473 511 518 524 537 593 599 798 829 875 1066 1073 1151 1162 1166 1175 1177 1190 1199 1205 1206 1227 1421 1441 1638 1646 1654 1789 1808 1818 1934
48 atoms in group swk2unmark
set group swk2unmark type 1
  48 settings made for type
group swk2unmark delete
run 15000 post no
Neighbor list info ...
  update every 1 steps, delay 1 steps, check yes
  max neighbors/atom: 2000, page size: 100000
  master list distance cutoff = 3.7
  ghost atom cutoff = 3.7
  binsize = 1.85, bins = 55 55 55
  3 neighbor lists, perpetual/occasional/extra = 3 0 0
  (1) pair lj/cut, perpetual, skip from (3)
      attributes: half, newton on
      pair build: skip
      stencil: none
      bin: none
  (2) pair morse, perpetual, skip from (3)
      attributes: half, newton on
      pair build: skip
      stencil: none
      bin: none
  (3) neighbor class addition, perpetual
      attributes: half, newton on
      pair build: half/bin/newton
      stencil: half/bin/3d/newton
      bin: standard
Per MPI rank memory allocation (min/avg/max) = 13.39 | 13.39 | 13.39 Mbytes
Step Temp E_pair 
 9825000    0.9931596  -0.06581072 
 9840000     1.022651  -0.07892223 
Loop time of 4.14217 on 1 procs for 15000 steps with 2042 atoms

group swunmark2k id  71 82 225 289 293 302 315 427 434 524 534 748 823 875 880 882 884 885 888 889 892 894 1151 1164 1166 1167 1357 1421 1428 1646 1654 1655 1819 1820 1823 1826 1828 1830
38 atoms in group swunmark2k
set group swunmark2k type 6
  38 settings made for type
group swunmark2k delete
group swk2unmark id  34 74 180 182 187 211 271 297 323 331 421 437 439 465 508 517 585 682 760 773 812 826 851 878 984 1081 1133 1168 1180 1215 1397 1419 1433 1466 1616 1636 1645 1760 1801
39 atoms in group swk2unmark
set group swk2unmark type 1
  39 settings made for type
group swk2unmark delete
run 15000 post no
Neighbor list info ...
  update every 1 steps, delay 1 steps, check yes
  max neighbors/atom: 2000, page size: 100000
  master list distance cutoff = 3.7
  ghost atom cutoff = 3.7
  binsize = 1.85, bins = 55 55 55
  3 neighbor lists, perpetual/occasional/extra = 3 0 0
  (1) pair lj/cut, perpetual, skip from (3)
      attributes: half, newton on
      pair build: skip
      stencil: none
      bin: none
  (2) pair morse, perpetual, skip from (3)
      attributes: half, newton on
      pair build: skip
      stencil: none
      bin: none
  (3) neighbor class addition, perpetual
      attributes: half, newton on
      pair build: half/bin/newton
      stencil: half/bin/3d/newton
      bin: standard
Per MPI rank memory allocation (min/avg/max) = 13.39 | 13.39 | 13.39 Mbytes
Step Temp E_pair 
 9840000     1.022651 -0.077214569 
 9855000   0.97734074 -0.079974231 
Loop time of 4.12437 on 1 procs for 15000 steps with 2042 atoms

group swunmark2k id  64 222 297 430 437 508 511 517 518 519 752 760 830 831 1177 1179 1180 1190 1431 1433 1586 1589 1591 1593 1617 1618 1619 1620 1623 1653 1784 1785 1787 1789 1839 1843 1844 1846
38 atoms in group swunmark2k
set group swunmark2k type 6
  38 settings made for type
group swunmark2k delete
group swATACON2OFF id  1800
1 atoms in group swATACON2OFF
set group swATACON2OFF type 5
  1 settings made for type
group swATACON2OFF delete
group swk2unmark id  66 82 196 199 217 288 433 443 451 460 471 476 507 534 703 719 757 759 811 832 852 870 872 883 1082 1137 1166 1172 1192 1222 1224 1266 1284 1426 1655 1788 1792 1797 1825 1829 1835 1836 1841 1847 1887
45 atoms in group swk2unmark
set group swk2unmark type 1
  45 settings made for type
group swk2unmark delete
run 15000 post no
Neighbor list info ...
  update every 1 steps, delay 1 steps, check yes
  max neighbors/atom: 2000, page size: 100000
  master list distance cutoff = 3.7
  ghost atom cutoff = 3.7
  binsize = 1.85, bins = 55 55 55
  3 neighbor lists, perpetual/occasional/extra = 3 0 0
  (1) pair lj/cut, perpetual, skip from (3)
      attributes: half, newton on
      pair build: skip
      stencil: none
      bin: none
  (2) pair morse, perpetual, skip from (3)
      attributes: half, newton on
      pair build: skip
      stencil: none
      bin: none
  (3) neighbor class addition, perpetual
      attributes: half, newton on
      pair build: half/bin/newton
      stencil: half/bin/3d/newton
      bin: standard
Per MPI rank memory allocation (min/avg/max) = 13.39 | 13.39 | 13.39 Mbytes
Step Temp E_pair 
 9855000   0.97734074 -0.069449226 
 9870000    1.0185923 -0.072291314 
Loop time of 4.11211 on 1 procs for 15000 steps with 2042 atoms

group swATACOFF2ON id  1600
1 atoms in group swATACOFF2ON
set group swATACOFF2ON type 7
  1 settings made for type
group swATACOFF2ON delete
group swunmark2k id  147 148 149 288 423 433 507 714 715 716 736 739 741 743 747 757 759 780 781 782 783 784 788 789 790 826 827 829 836 852 854 887 1178 1568 1569 1570 1598 1627 1630 1632 1635 1636 1638 1645 1835 1836 1841 1848
48 atoms in group swunmark2k
set group swunmark2k type 6
  48 settings made for type
group swunmark2k delete
group swk2unmark id  68 69 73 205 207 212 227 286 296 302 303 395 434 459 517 519 528 529 561 574 681 684 720 740 769 813 858 880 889 892 1072 1141 1185 1187 1213 1265 1395 1416 1418 1421 1423 1438 1631 1648 1757 1769 1781 1795 1817 1828
50 atoms in group swk2unmark
set group swk2unmark type 1
  50 settings made for type
group swk2unmark delete
run 15000 post no
Neighbor list info ...
  update every 1 steps, delay 1 steps, check yes
  max neighbors/atom: 2000, page size: 100000
  master list distance cutoff = 3.7
  ghost atom cutoff = 3.7
  binsize = 1.85, bins = 55 55 55
  3 neighbor lists, perpetual/occasional/extra = 3 0 0
  (1) pair lj/cut, perpetual, skip from (3)
      attributes: half, newton on
      pair build: skip
      stencil: none
      bin: none
  (2) pair morse, perpetual, skip from (3)
      attributes: half, newton on
      pair build: skip
      stencil: none
      bin: none
  (3) neighbor class addition, perpetual
      attributes: half, newton on
      pair build: half/bin/newton
      stencil: half/bin/3d/newton
      bin: standard
Per MPI rank memory allocation (min/avg/max) = 13.39 | 13.39 | 13.39 Mbytes
Step Temp E_pair 
 9870000    1.0185923 -0.065856072 
 9885000    1.0282934 -0.074899777 
Loop time of 4.13474 on 1 procs for 15000 steps with 2042 atoms

group swunmark2k id  68 69 73 74 133 134 137 141 146 286 296 302 303 308 323 420 421 422 740 769 773 774 775 779 785 786 787 791 792 793 795 796 797 832 843 870 872 878 880 883 1185 1192 1423 1426 1438 1631 1648 1842 1859 1862
50 atoms in group swunmark2k
set group swunmark2k type 6
  50 settings made for type
group swunmark2k delete
group swATACON2OFF id  600
1 atoms in group swATACON2OFF
set group swATACON2OFF type 5
  1 settings made for type
group swATACON2OFF delete
group swk2unmark id  85 86 87 91 244 285 290 305 310 337 503 524 530 541 664 728 748 754 762 788 809 816 819 831 835 839 847 868 1043 1169 1188 1191 1195 1231 1268 1417 1422 1425 1447 1569 1618 1623 1630 1635 1638 1643 1644
47 atoms in group swk2unmark
set group swk2unmark type 1
  47 settings made for type
group swk2unmark delete
run 15000 post no
Neighbor list info ...
  update every 1 steps, delay 1 steps, check yes
  max neighbors/atom: 2000, page size: 100000
  master list distance cutoff = 3.7
  ghost atom cutoff = 3.7
  binsize = 1.85, bins = 55 55 55
  3 neighbor lists, perpetual/occasional/extra = 3 0 0
  (1) pair lj/cut, perpetual, skip from (3)
      attributes: half, newton on
      pair build: skip
      stencil: none
      bin: none
  (2) pair morse, perpetual, skip from (3)
      attributes: half, newton on
      pair build: skip
      stencil: none
      bin: none
  (3) neighbor class addition, perpetual
      attributes: half, newton on
      pair build: half/bin/newton
      stencil: half/bin/3d/newton
      bin: standard
Per MPI rank memory allocation (min/avg/max) = 13.39 | 13.39 | 13.39 Mbytes
Step Temp E_pair 
 9885000    1.0282934  -0.06230879 
 9900000    1.0127496 -0.077733583 
Loop time of 4.10695 on 1 procs for 15000 steps with 2042 atoms

group swON2OFF id  2001
1 atoms in group swON2OFF
set group swON2OFF type 8
  1 settings made for type
group swON2OFF delete
group swunmark2k id  144 145 282 285 314 325 415 416 519 524 754 879 1174 1175 1187 1188 1391 1396 1397 1399 1418 1419 1420 1421 1425 1643 1655
27 atoms in group swunmark2k
set group swunmark2k type 6
  27 settings made for type
group swunmark2k delete
group swATACON2OFF id  300 1600
2 atoms in group swATACON2OFF
set group swATACON2OFF type 5
  2 settings made for type
group swATACON2OFF delete
group swk2unmark id  58 70 74 134 146 204 222 252 283 307 312 344 396 401 423 470 531 532 730 733 747 755 772 780 782 867 894 1029 1136 1152 1208 1264 1426 1427 1437 1619 1624 1640 1799 1836 1844
41 atoms in group swk2unmark
set group swk2unmark type 1
  41 settings made for type
group swk2unmark delete
run 15000 post no
Neighbor list info ...
  update every 1 steps, delay 1 steps, check yes
  max neighbors/atom: 2000, page size: 100000
  master list distance cutoff = 3.7
  ghost atom cutoff = 3.7
  binsize = 1.85, bins = 55 55 55
  3 neighbor lists, perpetual/occasional/extra = 3 0 0
  (1) pair lj/cut, perpetual, skip from (3)
      attributes: half, newton on
      pair build: skip
      stencil: none
      bin: none
  (2) pair morse, perpetual, skip from (3)
      attributes: half, newton on
      pair build: skip
      stencil: none
      bin: none
  (3) neighbor class addition, perpetual
      attributes: half, newton on
      pair build: half/bin/newton
      stencil: half/bin/3d/newton
      bin: standard
Per MPI rank memory allocation (min/avg/max) = 13.39 | 13.39 | 13.39 Mbytes
Step Temp E_pair 
 9900000    1.0127496 -0.075146788 
 9915000   0.99432329 -0.078809499 
Loop time of 4.12124 on 1 procs for 15000 steps with 2042 atoms

group swATACOFF2ON id  300
1 atoms in group swATACOFF2ON
set group swATACOFF2ON type 7
  1 settings made for type
group swATACOFF2ON delete
group swunmark2k id  74 77 82 139 140 142 143 146 150 152 153 275 276 279 280 305 307 403 517 529 733 738 747 755 762 772 1106 1302 1303 1441 1662 1663 1836 1863
34 atoms in group swunmark2k
set group swunmark2k type 6
  34 settings made for type
group swunmark2k delete
group swk2unmark id  133 210 428 516 559 571 583 736 741 783 832 873 885 895 1074 1179 1180 1182 1190 1194 1198 1280 1287 1391 1414 1431 1568 1591 1631 1633 1650 1659 1759 1796 1835
35 atoms in group swk2unmark
set group swk2unmark type 1
  35 settings made for type
group swk2unmark delete
run 15000 post no
Neighbor list info ...
  update every 1 steps, delay 1 steps, check yes
  max neighbors/atom: 2000, page size: 100000
  master list distance cutoff = 3.7
  ghost atom cutoff = 3.7
  binsize = 1.85, bins = 55 55 55
  3 neighbor lists, perpetual/occasional/extra = 3 0 0
  (1) pair lj/cut, perpetual, skip from (3)
      attributes: half, newton on
      pair build: skip
      stencil: none
      bin: none
  (2) pair morse, perpetual, skip from (3)
      attributes: half, newton on
      pair build: skip
      stencil: none
      bin: none
  (3) neighbor class addition, perpetual
      attributes: half, newton on
      pair build: half/bin/newton
      stencil: half/bin/3d/newton
      bin: standard
Per MPI rank memory allocation (min/avg/max) = 13.39 | 13.39 | 13.39 Mbytes
Step Temp E_pair 
 9915000   0.99432329 -0.078390757 
 9930000   0.99226579 -0.070221488 
Loop time of 4.12102 on 1 procs for 15000 steps with 2042 atoms

group swunmark2k id  65 66 197 201 290 306 310 311 312 417 423 428 501 503 736 741 744 885 886 889 1179 1431 1440 1650 1664 1835 1844
27 atoms in group swunmark2k
set group swunmark2k type 6
  27 settings made for type
group swunmark2k delete
group swk2unmark id  60 81 141 273 287 291 292 294 308 425 435 461 477 482 536 686 702 708 737 769 822 878 887 1161 1164 1165 1174 1193 1221 1586 1657 1749 1784 1838 1863
35 atoms in group swk2unmark
set group swk2unmark type 1
  35 settings made for type
group swk2unmark delete
run 15000 post no
Neighbor list info ...
  update every 1 steps, delay 1 steps, check yes
  max neighbors/atom: 2000, page size: 100000
  master list distance cutoff = 3.7
  ghost atom cutoff = 3.7
  binsize = 1.85, bins = 55 55 55
  3 neighbor lists, perpetual/occasional/extra = 3 0 0
  (1) pair lj/cut, perpetual, skip from (3)
      attributes: half, newton on
      pair build: skip
      stencil: none
      bin: none
  (2) pair morse, perpetual, skip from (3)
      attributes: half, newton on
      pair build: skip
      stencil: none
      bin: none
  (3) neighbor class addition, perpetual
      attributes: half, newton on
      pair build: half/bin/newton
      stencil: half/bin/3d/newton
      bin: standard
Per MPI rank memory allocation (min/avg/max) = 13.39 | 13.39 | 13.39 Mbytes
Step Temp E_pair 
 9930000   0.99226579 -0.064418881 
 9945000    1.0109562 -0.078423251 
Loop time of 4.11865 on 1 procs for 15000 steps with 2042 atoms

group swOFF2ON id  2001
1 atoms in group swOFF2ON
set group swOFF2ON type 2
  1 settings made for type
group swOFF2ON delete
group swunmark2k id  151 154 287 291 294 419 434 435 516 603 604 605 606 607 769 777 893 894 896 897 898 899 904 913 914 915 983 985 989 1174 1182 1191 1193 1196 1365 1368 1369 1370 1371 1372 1375 1376 1378 1395 1402 1403 1404 1405 1406 1410 1413 1422 1644 1845
54 atoms in group swunmark2k
set group swunmark2k type 6
  54 settings made for type
group swunmark2k delete
group swk2unmark id  67 80 192 209 214 289 326 423 429 432 449 508 608 614 727 745 759 768 772 838 859 866 869 1146 1181 1187 1297 1392 1617 1643 1653 1655 1802 1821
34 atoms in group swk2unmark
set group swk2unmark type 1
  34 settings made for type
group swk2unmark delete
run 15000 post no
Neighbor list info ...
  update every 1 steps, delay 1 steps, check yes
  max neighbors/atom: 2000, page size: 100000
  master list distance cutoff = 3.7
  ghost atom cutoff = 3.7
  binsize = 1.85, bins = 55 55 55
  3 neighbor lists, perpetual/occasional/extra = 3 0 0
  (1) pair lj/cut, perpetual, skip from (3)
      attributes: half, newton on
      pair build: skip
      stencil: none
      bin: none
  (2) pair morse, perpetual, skip from (3)
      attributes: half, newton on
      pair build: skip
      stencil: none
      bin: none
  (3) neighbor class addition, perpetual
      attributes: half, newton on
      pair build: half/bin/newton
      stencil: half/bin/3d/newton
      bin: standard
Per MPI rank memory allocation (min/avg/max) = 13.39 | 13.39 | 13.39 Mbytes
Step Temp E_pair 
 9945000    1.0109562 -0.070377169 
 9960000    1.0009536 -0.078379545 
Loop time of 4.12575 on 1 procs for 15000 steps with 2042 atoms

group swunmark2k id  80 156 170 172 173 289 375 378 379 382 387 389 410 413 735 737 745 776 778 783 788 810 811 887 1180 1190 1195 1201 1205 1206 1207 1366 1367 1388 1391 1392 1407 1408 1409 1411 1412 1584 1626 1630 1631 1635 1640 1643
48 atoms in group swunmark2k
set group swunmark2k type 6
  48 settings made for type
group swunmark2k delete
group swATACON2OFF id  1900
1 atoms in group swATACON2OFF
set group swATACON2OFF type 5
  1 settings made for type
group swATACON2OFF delete
group swk2unmark id  69 76 77 82 143 202 226 279 322 394 424 430 474 502 505 605 743 746 784 791 797 846 853 875 877 879 889 947 1134 1170 1186 1197 1263 1368 1404 1570 1589 1636 1844 1859 1904
41 atoms in group swk2unmark
set group swk2unmark type 1
  41 settings made for type
group swk2unmark delete
run 15000 post no
Neighbor list info ...
  update every 1 steps, delay 1 steps, check yes
  max neighbors/atom: 2000, page size: 100000
  master list distance cutoff = 3.7
  ghost atom cutoff = 3.7
  binsize = 1.85, bins = 55 55 55
  3 neighbor lists, perpetual/occasional/extra = 3 0 0
  (1) pair lj/cut, perpetual, skip from (3)
      attributes: half, newton on
      pair build: skip
      stencil: none
      bin: none
  (2) pair morse, perpetual, skip from (3)
      attributes: half, newton on
      pair build: skip
      stencil: none
      bin: none
  (3) neighbor class addition, perpetual
      attributes: half, newton on
      pair build: half/bin/newton
      stencil: half/bin/3d/newton
      bin: standard
Per MPI rank memory allocation (min/avg/max) = 13.39 | 13.39 | 13.39 Mbytes
Step Temp E_pair 
 9960000    1.0009536 -0.073069455 
 9975000    1.0118476 -0.071584446 
Loop time of 4.11466 on 1 procs for 15000 steps with 2042 atoms

group swunmark2k id  69 70 77 98 99 101 103 105 106 107 141 283 414 424 430 432 505 728 743 748 772 794 801 802 803 804 806 813 875 879 1181 1374 1377 1379 1382 1384 1385 1389 1390 1414 1636 1638 1653 1675 1676 1849 1851 1855 1856
49 atoms in group swunmark2k
set group swunmark2k type 6
  49 settings made for type
group swunmark2k delete
group swk2unmark id  35 64 148 156 201 203 218 280 282 294 296 307 410 421 427 441 526 527 542 665 714 741 750 757 769 823 827 843 852 862 872 884 1138 1178 1302 1375 1411 1428 1429 1433 1435 1598 1645 1748 1798 1826 1835
47 atoms in group swk2unmark
set group swk2unmark type 1
  47 settings made for type
group swk2unmark delete
run 15000 post no
Neighbor list info ...
  update every 1 steps, delay 1 steps, check yes
  max neighbors/atom: 2000, page size: 100000
  master list distance cutoff = 3.7
  ghost atom cutoff = 3.7
  binsize = 1.85, bins = 55 55 55
  3 neighbor lists, perpetual/occasional/extra = 3 0 0
  (1) pair lj/cut, perpetual, skip from (3)
      attributes: half, newton on
      pair build: skip
      stencil: none
      bin: none
  (2) pair morse, perpetual, skip from (3)
      attributes: half, newton on
      pair build: skip
      stencil: none
      bin: none
  (3) neighbor class addition, perpetual
      attributes: half, newton on
      pair build: half/bin/newton
      stencil: half/bin/3d/newton
      bin: standard
Per MPI rank memory allocation (min/avg/max) = 13.39 | 13.39 | 13.39 Mbytes
Step Temp E_pair 
 9975000    1.0118476 -0.061846221 
 9990000    1.0144735 -0.083743202 
Loop time of 4.12582 on 1 procs for 15000 steps with 2042 atoms

write_data DNA.${runnumber}.restart nocoeff
write_data DNA.1.restart nocoeff
Neighbor list info ...
  update every 1 steps, delay 1 steps, check yes
  max neighbors/atom: 2000, page size: 100000
  master list distance cutoff = 3.7
  ghost atom cutoff = 3.7
  binsize = 1.85, bins = 55 55 55
  3 neighbor lists, perpetual/occasional/extra = 3 0 0
  (1) pair lj/cut, perpetual, skip from (3)
      attributes: half, newton on
      pair build: skip
      stencil: none
      bin: none
  (2) pair morse, perpetual, skip from (3)
      attributes: half, newton on
      pair build: skip
      stencil: none
      bin: none
  (3) neighbor class addition, perpetual
      attributes: half, newton on
      pair build: half/bin/newton
      stencil: half/bin/3d/newton
      bin: standard
Total wall time: 0:48:03
