 LAMMPS data file for gas of spheres

 2440 atoms
 1999 bonds
 1998 angles

 4 atom types
 1 bond types
 1 angle types

 -50 50 xlo xhi
 -50 50 ylo yhi
 -50 50 zlo zhi


 Masses

 1 1
 2 1
 3 1
 4 1

 Atoms

1 1 1 0 0 0 0 0 0
2 1 1 0.0789858 -0.0375052 -0.99617 0 0 0
3 1 1 -0.417487 0.773451 -0.686549 0 0 0
4 1 1 0.468225 0.691754 -0.229557 0 0 0
5 1 1 -0.280004 1.3021 0.0304915 0 0 0
6 1 1 -0.431187 1.46951 1.00472 0 0 0
7 1 1 -0.40399 1.90212 0.103551 0 0 0
8 1 1 0.111069 2.66833 0.487801 0 0 0
9 1 1 -0.598161 3.0974 -0.0715644 0 0 0
10 1 1 -0.680265 2.17521 0.306359 0 0 0
11 1 1 -0.887761 1.25841 -0.0348531 0 0 0
12 1 1 -0.758804 0.435709 -0.588506 0 0 0
13 1 1 -0.295044 0.857528 0.190594 0 0 0
14 1 1 -0.168599 0.852257 1.18255 0 0 0
15 1 1 0.385069 0.0234891 1.26377 0 0 0
16 1 1 0.0507665 0.83888 1.7364 0 0 0
17 1 1 -0.320546 1.69052 2.10632 0 0 0
18 1 1 -0.195154 1.01437 2.83233 0 0 0
19 1 1 -0.943083 0.537757 2.37033 0 0 0
20 1 1 -0.331606 0.821419 1.63167 0 0 0
21 1 1 -0.301248 0.771508 0.633373 0 0 0
22 1 1 0.216933 -0.0601437 0.832984 0 0 0
23 1 1 0.305778 -0.28253 1.80389 0 0 0
24 1 1 0.307508 -0.299755 0.804036 0 0 0
25 1 1 -0.138597 0.168605 1.56668 0 0 0
26 1 1 0.369015 -0.692963 1.56103 0 0 0
27 1 1 0.469163 -0.446532 2.525 0 0 0
28 1 1 0.170493 0.446265 2.18779 0 0 0
29 1 1 -0.312018 -0.21676 2.76014 0 0 0
30 1 1 -0.161508 -1.00167 3.36119 0 0 0
31 1 1 -0.808175 -1.76418 3.38126 0 0 0
32 1 1 -0.609022 -1.96841 4.33971 0 0 0
33 1 1 -0.681911 -1.84237 3.35036 0 0 0
34 1 1 -1.3788 -2.39252 2.89028 0 0 0
35 1 1 -1.58433 -2.27396 1.91883 0 0 0
36 1 1 -0.879373 -2.75215 1.39503 0 0 0
37 1 1 -0.332625 -2.29098 2.09388 0 0 0
38 1 1 -0.682485 -1.6609 1.40063 0 0 0
39 1 1 -0.700283 -1.90281 0.430493 0 0 0
40 1 1 -0.51847 -1.66563 1.38479 0 0 0
41 1 1 -0.79315 -1.86101 2.32627 0 0 0
42 1 1 -0.772621 -1.80383 1.32812 0 0 0
43 1 1 -1.29617 -2.13669 0.543838 0 0 0
44 1 1 -0.462145 -1.58508 0.554762 0 0 0
45 1 1 -0.286606 -2.24675 1.28372 0 0 0
46 1 1 -0.326475 -2.63274 0.362073 0 0 0
47 1 1 0.625793 -2.84414 0.582282 0 0 0
48 1 1 -0.0739982 -2.20992 0.253562 0 0 0
49 1 1 -0.118569 -1.40459 0.8447 0 0 0
50 1 1 -0.112707 -1.37109 -0.154722 0 0 0
51 1 1 -0.547854 -2.10333 -0.678631 0 0 0
52 1 1 -0.195686 -2.27115 0.242137 0 0 0
53 1 1 0.251047 -2.73864 -0.520673 0 0 0
54 1 1 0.0179945 -3.42912 0.164117 0 0 0
55 1 1 -0.565845 -2.69088 -0.173729 0 0 0
56 1 1 -0.656495 -3.15248 -1.05617 0 0 0
57 1 1 -0.592581 -3.27841 -2.04615 0 0 0
58 1 1 -0.606173 -3.54411 -3.01011 0 0 0
59 1 1 -1.42309 -3.03144 -2.74588 0 0 0
60 1 1 -1.70207 -3.44134 -3.6143 0 0 0
61 1 1 -1.8567 -4.01387 -2.80914 0 0 0
62 1 1 -2.49362 -4.70422 -2.46599 0 0 0
63 1 1 -1.63852 -4.73042 -2.98379 0 0 0
64 1 1 -1.59456 -4.73825 -1.98479 0 0 0
65 1 1 -0.878954 -4.72299 -1.28646 0 0 0
66 1 1 -0.361026 -4.9689 -0.467138 0 0 0
67 1 1 -0.738212 -4.19176 -0.97091 0 0 0
68 1 1 -1.14166 -4.04431 -1.87395 0 0 0
69 1 1 -0.722188 -3.65745 -1.05275 0 0 0
70 1 1 -0.580753 -4.06634 -0.151196 0 0 0
71 1 1 0.412612 -4.15062 -0.0729409 0 0 0
72 1 1 -0.489932 -3.72566 -0.142434 0 0 0
73 1 1 -1.00468 -3.50834 -0.971771 0 0 0
74 1 1 -0.927996 -3.00011 -0.113969 0 0 0
75 1 1 -0.466654 -2.98069 -1.00098 0 0 0
76 1 1 -0.118982 -2.86942 -1.93197 0 0 0
77 1 1 -0.214732 -2.09432 -2.55651 0 0 0
78 1 1 -0.857458 -1.5486 -3.09419 0 0 0
79 1 1 -1.10813 -2.24376 -2.42045 0 0 0
80 1 1 -2.00664 -2.34931 -1.99436 0 0 0
81 1 1 -2.77205 -2.62077 -2.57785 0 0 0
82 1 1 -3.4309 -1.88625 -2.4154 0 0 0
83 1 1 -3.56328 -1.53078 -3.34067 0 0 0
84 1 1 -3.0553 -1.29384 -4.16881 0 0 0
85 1 1 -2.12476 -1.57673 -3.9363 0 0 0
86 1 1 -1.80868 -1.80526 -4.8571 0 0 0
87 1 1 -1.95752 -1.6892 -5.83912 0 0 0
88 1 1 -1.95298 -2.55047 -5.33098 0 0 0
89 1 1 -2.45922 -2.55735 -6.19335 0 0 0
90 1 1 -2.49067 -2.62232 -7.19074 0 0 0
91 1 1 -1.86294 -3.40025 -7.21857 0 0 0
92 1 1 -1.73812 -2.65543 -7.87406 0 0 0
93 1 1 -2.0653 -2.44267 -6.95336 0 0 0
94 1 1 -2.79759 -1.85453 -7.29664 0 0 0
95 1 1 -2.48428 -1.91139 -6.34869 0 0 0
96 1 1 -2.39651 -2.17329 -7.30979 0 0 0
97 1 1 -3.02693 -1.40123 -7.39035 0 0 0
98 1 1 -3.43738 -1.11018 -6.52616 0 0 0
99 1 1 -2.57782 -1.22738 -7.02357 0 0 0
100 1 1 -1.74037 -0.688339 -6.9335 0 0 0
101 1 1 -1.85908 -0.510688 -7.91041 0 0 0
102 1 1 -1.84044 -0.530279 -8.91005 0 0 0
103 1 1 -2.1595 0.129087 -9.59081 0 0 0
104 1 1 -3.00038 -0.262545 -9.96436 0 0 0
105 1 1 -3.42768 -0.568366 -10.8152 0 0 0
106 1 1 -3.77634 0.0406724 -10.1028 0 0 0
107 1 1 -2.79754 -0.113426 -9.96786 0 0 0
108 1 1 -3.64628 -0.612083 -10.1439 0 0 0
109 1 1 -3.18554 0.199951 -9.78567 0 0 0
110 1 1 -3.25795 0.20609 -10.783 0 0 0
111 1 1 -2.93526 -0.0685748 -9.87725 0 0 0
112 1 1 -3.33568 -0.745272 -9.25939 0 0 0
113 1 1 -4.00876 -0.553548 -8.5451 0 0 0
114 1 1 -3.83118 -0.662417 -7.56704 0 0 0
115 1 1 -4.78205 -0.894377 -7.362 0 0 0
116 1 1 -4.78934 -0.886187 -6.36206 0 0 0
117 1 1 -4.42677 -0.897851 -7.29394 0 0 0
118 1 1 -4.91978 -1.36191 -6.55802 0 0 0
119 1 1 -4.39093 -2.01269 -6.01322 0 0 0
120 1 1 -4.03474 -1.57937 -5.18536 0 0 0
121 1 1 -4.94959 -1.19818 -5.05215 0 0 0
122 1 1 -4.09382 -1.70868 -4.96821 0 0 0
123 1 1 -3.14808 -1.5309 -4.69621 0 0 0
124 1 1 -2.86489 -2.48995 -4.69287 0 0 0
125 1 1 -3.43942 -2.40187 -3.87914 0 0 0
126 1 1 -3.84111 -1.73913 -3.24714 0 0 0
127 1 1 -4.66349 -2.12762 -2.8315 0 0 0
128 1 1 -4.66756 -2.131 -1.83151 0 0 0
129 1 1 -4.5932 -2.09687 -0.834866 0 0 0
130 1 1 -5.55983 -1.85089 -0.906346 0 0 0
131 1 1 -6.49149 -2.00603 -1.23488 0 0 0
132 1 1 -7.00974 -1.96816 -2.08927 0 0 0
133 1 1 -6.08866 -1.58448 -2.15565 0 0 0
134 1 1 -5.91343 -1.86943 -1.21326 0 0 0
135 1 1 -5.9862 -1.63617 -2.18295 0 0 0
136 1 1 -6.03564 -1.58909 -3.18061 0 0 0
137 1 1 -6.7406 -1.36736 -3.85432 0 0 0
138 1 1 -6.26283 -0.730111 -3.24962 0 0 0
139 1 1 -6.00105 -1.69341 -3.19019 0 0 0
140 1 1 -6.07798 -1.85299 -4.17438 0 0 0
141 1 1 -5.96381 -1.1158 -3.50841 0 0 0
142 1 1 -5.9962 -1.15099 -2.50955 0 0 0
143 1 1 -5.40113 -1.08751 -3.31071 0 0 0
144 1 1 -5.10058 -1.70733 -2.5858 0 0 0
145 1 1 -5.07621 -1.97125 -1.62156 0 0 0
146 1 1 -5.35266 -2.69516 -0.989477 0 0 0
147 1 1 -4.73703 -2.19704 -0.378841 0 0 0
148 1 1 -4.53302 -2.69346 0.46493 0 0 0
149 1 1 -4.65693 -2.19671 1.32393 0 0 0
150 1 1 -3.91203 -1.70732 0.870472 0 0 0
151 1 1 -4.57965 -2.40112 0.600434 0 0 0
152 1 1 -5.01688 -1.50626 0.69013 0 0 0
153 1 1 -4.99406 -1.75256 1.65905 0 0 0
154 1 1 -5.91822 -2.12273 1.75334 0 0 0
155 1 1 -6.75968 -1.61254 1.57542 0 0 0
156 1 1 -6.44997 -2.22081 2.30623 0 0 0
157 1 1 -6.47487 -1.31472 1.88387 0 0 0
158 1 1 -7.38304 -0.918878 2.02001 0 0 0
159 1 1 -7.6228 -1.63245 2.67829 0 0 0
160 1 1 -8.07083 -1.06722 3.37095 0 0 0
161 1 1 -9.03498 -1.30598 3.48674 0 0 0
162 1 1 -9.03118 -1.45806 4.4751 0 0 0
163 1 1 -8.91307 -0.570508 4.02979 0 0 0
164 1 1 -8.50763 -1.46113 3.82383 0 0 0
165 1 1 -8.295 -0.485602 3.76778 0 0 0
166 1 1 -8.07563 -0.315692 2.80705 0 0 0
167 1 1 -8.4228 0.00255903 1.9249 0 0 0
168 1 1 -7.55929 -0.447961 2.15156 0 0 0
169 1 1 -7.2044 -0.715593 3.04734 0 0 0
170 1 1 -7.49175 -1.67212 3.09727 0 0 0
171 1 1 -7.63028 -2.48826 3.65827 0 0 0
172 1 1 -6.68456 -2.80071 3.56882 0 0 0
173 1 1 -6.6146 -2.8073 2.5713 0 0 0
174 1 1 -6.60813 -1.87322 2.92831 0 0 0
175 1 1 -7.14165 -2.52006 2.38337 0 0 0
176 1 1 -6.56926 -1.7675 2.05775 0 0 0
177 1 1 -6.871 -2.20665 2.90398 0 0 0
178 1 1 -6.73005 -2.48 1.95245 0 0 0
179 1 1 -7.0811 -2.40505 1.0191 0 0 0
180 1 1 -7.81224 -1.88069 0.582656 0 0 0
181 1 1 -8.60419 -2.16168 0.040569 0 0 0
182 1 1 -9.59043 -2.32596 0.0221462 0 0 0
183 1 1 -9.40861 -2.40726 -0.957819 0 0 0
184 1 1 -8.55169 -1.91638 -0.800567 0 0 0
185 1 1 -8.08662 -2.12169 -1.66171 0 0 0
186 1 1 -7.69219 -1.64082 -2.44477 0 0 0
187 1 1 -8.04121 -0.83224 -2.91846 0 0 0
188 1 1 -8.22588 -1.04089 -1.95806 0 0 0
189 1 1 -9.02366 -0.90773 -1.37 0 0 0
190 1 1 -8.668 -0.945096 -2.30387 0 0 0
191 1 1 -9.01746 -0.921256 -1.36722 0 0 0
192 1 1 -9.12282 -0.538782 -0.449285 0 0 0
193 1 1 -8.69544 -0.456311 0.45102 0 0 0
194 1 1 -8.33657 -0.396062 1.38246 0 0 0
195 1 1 -8.25928 -1.39302 1.39232 0 0 0
196 1 1 -7.84023 -0.51362 1.61827 0 0 0
197 1 1 -7.07424 -0.854761 2.16314 0 0 0
198 1 1 -7.08807 -0.0561347 1.56147 0 0 0
199 1 1 -6.85951 0.281238 0.64827 0 0 0
200 1 1 -7.14555 -0.53985 1.14223 0 0 0
201 1 1 -6.94649 -0.348406 2.10334 0 0 0
202 1 1 -6.95832 -0.83739 1.23112 0 0 0
203 1 1 -6.07879 -1.27034 1.42853 0 0 0
204 1 1 -6.15683 -2.19781 1.79421 0 0 0
205 1 1 -6.24299 -1.24981 2.10061 0 0 0
206 1 1 -7.01022 -1.3213 1.46323 0 0 0
207 1 1 -6.5999 -1.88732 0.748205 0 0 0
208 1 1 -6.1466 -2.23022 -0.074555 0 0 0
209 1 1 -5.81787 -2.39481 -1.00453 0 0 0
210 1 1 -5.98853 -2.22845 -1.97571 0 0 0
211 1 1 -6.47989 -1.55973 -2.53372 0 0 0
212 1 1 -5.49596 -1.52873 -2.70954 0 0 0
213 1 1 -5.55343 -0.752053 -2.08227 0 0 0
214 1 1 -5.12989 -0.164682 -1.39263 0 0 0
215 1 1 -5.9347 -0.699274 -1.13479 0 0 0
216 1 1 -6.39612 -0.716849 -2.02179 0 0 0
217 1 1 -6.708 -1.4318 -2.64755 0 0 0
218 1 1 -6.29662 -0.850688 -1.94536 0 0 0
219 1 1 -6.92622 -1.54738 -2.28921 0 0 0
220 1 1 -6.58441 -1.52024 -3.22859 0 0 0
221 1 1 -6.83012 -1.71984 -4.17716 0 0 0
222 1 1 -7.41037 -2.52973 -4.26312 0 0 0
223 1 1 -7.91486 -1.6762 -4.13283 0 0 0
224 1 1 -8.43714 -0.836759 -4.28301 0 0 0
225 1 1 -9.15665 -0.706001 -3.60094 0 0 0
226 1 1 -8.41629 -0.949057 -4.22768 0 0 0
227 1 1 -8.48888 -0.424186 -5.07576 0 0 0
228 1 1 -8.37716 -0.33593 -6.06558 0 0 0
229 1 1 -8.14376 0.630719 -6.17102 0 0 0
230 1 1 -7.45582 0.410124 -5.47959 0 0 0
231 1 1 -7.00096 0.759309 -6.29884 0 0 0
232 1 1 -7.98325 0.630072 -6.16314 0 0 0
233 1 1 -8.14064 0.0344797 -6.95086 0 0 0
234 1 1 -8.83486 0.535741 -7.46739 0 0 0
235 1 1 -9.64949 0.205034 -6.99094 0 0 0
236 1 1 -9.58537 1.16584 -6.72124 0 0 0
237 1 1 -9.11164 0.979893 -5.86043 0 0 0
238 1 1 -9.34513 0.736324 -6.80179 0 0 0
239 1 1 -10.0502 1.02351 -6.15337 0 0 0
240 1 1 -10.1511 0.99994 -7.14798 0 0 0
241 1 1 -10.2661 0.745144 -8.10812 0 0 0
242 1 1 -10.3784 -0.247557 -8.06423 0 0 0
243 1 1 -10.5112 -0.195488 -9.05399 0 0 0
244 1 1 -10.9958 -0.159035 -9.92799 0 0 0
245 1 1 -10.2637 0.341611 -10.3899 0 0 0
246 1 1 -11.2119 0.594914 -10.1984 0 0 0
247 1 1 -10.7474 0.236163 -9.38878 0 0 0
248 1 1 -10.6825 0.231425 -10.3867 0 0 0
249 1 1 -11.2292 -0.541733 -10.7083 0 0 0
250 1 1 -10.3428 -0.853694 -10.3662 0 0 0
251 1 1 -10.1436 -1.44227 -9.58266 0 0 0
252 1 1 -10.5527 -1.07409 -8.74778 0 0 0
253 1 1 -9.9099 -0.741531 -9.43783 0 0 0
254 1 1 -9.87324 -0.737404 -8.43851 0 0 0
255 1 1 -8.88321 -0.87078 -8.4838 0 0 0
256 1 1 -9.75913 -0.419231 -8.65373 0 0 0
257 1 1 -8.9127 -0.199764 -9.13889 0 0 0
258 1 1 -9.26512 -0.513096 -8.25706 0 0 0
259 1 1 -8.26744 -0.54576 -8.19718 0 0 0
260 1 1 -8.05391 -0.307291 -7.2498 0 0 0
261 1 1 -8.32381 -0.380906 -6.28973 0 0 0
262 1 1 -8.56165 0.547428 -6.57543 0 0 0
263 1 1 -9.44522 0.121409 -6.38101 0 0 0
264 1 1 -8.70456 0.321196 -5.73952 0 0 0
265 1 1 -9.02574 -0.239299 -4.97618 0 0 0
266 1 1 -9.0603 -0.224851 -5.97548 0 0 0
267 1 1 -8.6007 0.657979 -5.87864 0 0 0
268 1 1 -8.47271 1.17729 -6.72359 0 0 0
269 1 1 -8.12432 0.563014 -6.01557 0 0 0
270 1 1 -8.0663 -0.0942911 -5.26418 0 0 0
271 1 1 -7.94848 -0.641765 -6.09267 0 0 0
272 1 1 -8.49744 -0.544318 -5.26252 0 0 0
273 1 1 -8.79128 -0.109412 -6.11371 0 0 0
274 1 1 -8.88351 0.146542 -5.15143 0 0 0
275 1 1 -8.56856 0.963255 -4.66791 0 0 0
276 1 1 -9.4557 1.38335 -4.47688 0 0 0
277 1 1 -8.72762 1.5272 -5.1471 0 0 0
278 1 1 -8.36243 2.20674 -5.78338 0 0 0
279 1 1 -7.41396 2.19391 -6.1 0 0 0
280 1 1 -7.12801 1.64217 -5.31654 0 0 0
281 1 1 -6.86752 2.47077 -5.81208 0 0 0
282 1 1 -6.37817 3.01996 -5.13464 0 0 0
283 1 1 -5.57828 3.48259 -4.75233 0 0 0
284 1 1 -6.20502 2.85804 -4.28635 0 0 0
285 1 1 -6.43854 2.7389 -5.25138 0 0 0
286 1 1 -6.57756 1.80972 -4.9089 0 0 0
287 1 1 -7.37716 1.38962 -4.47978 0 0 0
288 1 1 -7.13842 1.92228 -3.66782 0 0 0
289 1 1 -7.19329 2.15997 -4.63761 0 0 0
290 1 1 -7.26179 3.15691 -4.59986 0 0 0
291 1 1 -6.36795 2.71411 -4.52933 0 0 0
292 1 1 -6.1692 3.51599 -5.09279 0 0 0
293 1 1 -6.28073 3.58671 -6.08403 0 0 0
294 1 1 -7.14741 3.24113 -5.72425 0 0 0
295 1 1 -7.93568 2.69594 -5.43895 0 0 0
296 1 1 -7.09529 3.11051 -5.08986 0 0 0
297 1 1 -7.44529 2.63145 -5.89484 0 0 0
298 1 1 -7.16341 3.16753 -5.09913 0 0 0
299 1 1 -7.86663 2.9253 -5.76756 0 0 0
300 1 1 -8.2198 2.44809 -6.57226 0 0 0
301 1 1 -8.06769 2.80833 -5.65189 0 0 0
302 1 1 -8.9883 2.88541 -5.2691 0 0 0
303 1 1 -9.59438 2.58439 -6.00534 0 0 0
304 1 1 -9.93664 1.794 -6.51342 0 0 0
305 1 1 -9.70234 2.1513 -7.41754 0 0 0
306 1 1 -9.7903 2.29585 -8.40312 0 0 0
307 1 1 -9.9619 2.09771 -7.43809 0 0 0
308 1 1 -9.00805 2.35711 -7.58936 0 0 0
309 1 1 -8.87596 2.29616 -6.6 0 0 0
310 1 1 -9.78571 2.56433 -6.91692 0 0 0
311 1 1 -8.79176 2.49639 -7.00317 0 0 0
312 1 1 -9.24583 3.38323 -7.08888 0 0 0
313 1 1 -9.33449 2.48104 -7.51101 0 0 0
314 1 1 -10.027 3.20241 -7.50557 0 0 0
315 1 1 -10.2504 3.95469 -6.88576 0 0 0
316 1 1 -10.3054 3.98718 -5.8878 0 0 0
317 1 1 -11.0956 4.59759 -5.83241 0 0 0
318 1 1 -11.0875 4.90112 -6.78519 0 0 0
319 1 1 -11.176 4.85849 -7.78036 0 0 0
320 1 1 -11.0742 4.66808 -8.75677 0 0 0
321 1 1 -10.5371 4.14167 -9.41587 0 0 0
322 1 1 -10.3445 3.68471 -8.54749 0 0 0
323 1 1 -10.5716 2.7117 -8.58835 0 0 0
324 1 1 -10.9792 2.55185 -9.48741 0 0 0
325 1 1 -11.8472 2.78406 -9.92647 0 0 0
326 1 1 -11.8267 2.82248 -8.92742 0 0 0
327 1 1 -12.7803 2.57013 -8.76333 0 0 0
328 1 1 -11.9237 3.08591 -8.75545 0 0 0
329 1 1 -11.1623 3.06563 -8.1074 0 0 0
330 1 1 -12.0775 2.6846 -7.97584 0 0 0
331 1 1 -12.8636 2.79218 -7.36719 0 0 0
332 1 1 -12.8531 2.72354 -8.36478 0 0 0
333 1 1 -12.5719 2.45836 -9.28705 0 0 0
334 1 1 -12.5378 2.4063 -8.28899 0 0 0
335 1 1 -11.5969 2.10417 -8.13602 0 0 0
336 1 1 -11.2316 2.88268 -8.64643 0 0 0
337 1 1 -10.9667 2.43902 -9.50258 0 0 0
338 1 1 -10.9774 2.45581 -10.5024 0 0 0
339 1 1 -10.3995 1.65429 -10.6562 0 0 0
340 1 1 -10.2924 1.94528 -11.6069 0 0 0
341 1 1 -9.58783 1.51958 -11.0392 0 0 0
342 1 1 -9.55721 0.607359 -10.6306 0 0 0
343 1 1 -8.9095 -0.141194 -10.4887 0 0 0
344 1 1 -8.96857 -0.614889 -11.3674 0 0 0
345 1 1 -9.09974 -0.207689 -12.2713 0 0 0
346 1 1 -8.63592 0.439193 -11.666 0 0 0
347 1 1 -8.72013 1.07602 -12.4323 0 0 0
348 1 1 -8.8553 0.885938 -13.4048 0 0 0
349 1 1 -8.42666 0.731301 -12.5146 0 0 0
350 1 1 -9.22913 0.134905 -12.4957 0 0 0
351 1 1 -9.06401 0.41203 -13.4422 0 0 0
352 1 1 -9.17242 -0.211418 -14.2165 0 0 0
353 1 1 -9.17235 -0.21186 -13.2165 0 0 0
354 1 1 -9.35891 -0.271584 -12.2359 0 0 0
355 1 1 -8.46067 -0.487821 -12.6185 0 0 0
356 1 1 -7.80198 -0.783776 -13.3103 0 0 0
357 1 1 -7.50791 -0.542995 -14.2353 0 0 0
358 1 1 -7.91056 0.183211 -14.7925 0 0 0
359 1 1 -7.99467 0.167317 -15.7888 0 0 0
360 1 1 -7.90107 0.00204516 -14.807 0 0 0
361 1 1 -8.21132 0.407924 -15.6667 0 0 0
362 1 1 -8.25302 0.374618 -16.6652 0 0 0
363 1 1 -7.47881 -0.129967 -17.0473 0 0 0
364 1 1 -7.36333 -0.847312 -16.3603 0 0 0
365 1 1 -7.35532 -1.29291 -17.2555 0 0 0
366 1 1 -7.36456 -2.21927 -16.879 0 0 0
367 1 1 -7.22564 -2.00331 -17.8454 0 0 0
368 1 1 -6.36067 -2.49682 -17.7545 0 0 0
369 1 1 -6.56012 -2.53979 -18.7334 0 0 0
370 1 1 -7.4858 -2.90349 -18.6293 0 0 0
371 1 1 -7.23683 -1.93505 -18.6173 0 0 0
372 1 1 -7.93061 -1.21527 -18.5933 0 0 0
373 1 1 -7.57417 -0.451448 -18.0552 0 0 0
374 1 1 -7.78328 0.324992 -18.6497 0 0 0
375 1 1 -7.71651 -0.461881 -19.2632 0 0 0
376 1 1 -8.08428 -0.555218 -18.338 0 0 0
377 1 1 -7.80217 -0.331 -17.4052 0 0 0
378 1 1 -7.82414 -0.775552 -16.5097 0 0 0
379 1 1 -7.8631 -0.74933 -15.5108 0 0 0
380 1 1 -7.18915 -1.48605 -15.5659 0 0 0
381 1 1 -6.81219 -1.77971 -14.6874 0 0 0
382 1 1 -5.98249 -1.35091 -15.0448 0 0 0
383 1 1 -5.83925 -1.26332 -14.059 0 0 0
384 1 1 -5.81857 -1.26484 -15.0588 0 0 0
385 1 1 -6.71815 -1.03499 -15.4302 0 0 0
386 1 1 -5.98598 -0.370557 -15.5801 0 0 0
387 1 1 -5.15284 -0.155211 -16.0895 0 0 0
388 1 1 -4.15567 -0.222433 -16.0561 0 0 0
389 1 1 -3.92784 0.374871 -15.2871 0 0 0
390 1 1 -3.22651 0.0502321 -14.6525 0 0 0
391 1 1 -3.34183 0.128571 -15.6427 0 0 0
392 1 1 -2.44853 0.568439 -15.5503 0 0 0
393 1 1 -3.18811 -0.103593 -15.5878 0 0 0
394 1 1 -3.72941 -0.195866 -16.4235 0 0 0
395 1 1 -3.76536 -0.132855 -15.4262 0 0 0
396 1 1 -3.37176 0.727237 -15.1016 0 0 0
397 1 1 -2.71871 0.772978 -14.3457 0 0 0
398 1 1 -2.85827 1.48321 -13.6557 0 0 0
399 1 1 -2.8602 1.78767 -12.7032 0 0 0
400 1 1 -3.00232 1.05289 -12.0399 0 0 0
401 1 1 -2.68011 0.333945 -12.6558 0 0 0
402 1 1 -3.04035 0.666576 -13.5273 0 0 0
403 1 1 -3.24011 1.0512 -14.4285 0 0 0
404 1 1 -2.42992 1.48396 -14.0332 0 0 0
405 1 1 -3.00766 0.669753 -14.0905 0 0 0
406 1 1 -3.0358 0.674442 -13.0909 0 0 0
407 1 1 -3.2119 0.697088 -12.1068 0 0 0
408 1 1 -4.11039 0.283 -12.2525 0 0 0
409 1 1 -4.3039 0.512436 -11.2986 0 0 0
410 1 1 -4.08842 0.715158 -10.3434 0 0 0
411 1 1 -4.90684 0.764599 -10.9158 0 0 0
412 1 1 -4.19199 0.378612 -10.3327 0 0 0
413 1 1 -5.12302 0.0136918 -10.3375 0 0 0
414 1 1 -5.60281 -0.33491 -9.53238 0 0 0
415 1 1 -6.15456 -0.234166 -10.3603 0 0 0
416 1 1 -6.99041 -0.348639 -9.82338 0 0 0
417 1 1 -6.55416 0.30626 -9.20629 0 0 0
418 1 1 -6.3712 0.544059 -10.1602 0 0 0
419 1 1 -6.51887 1.53161 -10.1059 0 0 0
420 1 1 -5.87253 1.53551 -9.3429 0 0 0
421 1 1 -5.84747 1.76636 -10.3156 0 0 0
422 1 1 -4.85684 1.65523 -10.2361 0 0 0
423 1 1 -4.07837 1.7597 -10.855 0 0 0
424 1 1 -3.71804 0.840593 -11.0144 0 0 0
425 1 1 -4.2826 0.0978956 -10.6543 0 0 0
426 1 1 -4.08828 0.199632 -11.63 0 0 0
427 1 1 -4.03978 0.613899 -10.7211 0 0 0
428 1 1 -4.0439 0.609015 -11.7211 0 0 0
429 1 1 -3.85537 1.18985 -12.513 0 0 0
430 1 1 -4.4029 0.784812 -11.7808 0 0 0
431 1 1 -5.20501 0.478392 -12.2933 0 0 0
432 1 1 -4.84012 0.383768 -11.3671 0 0 0
433 1 1 -4.06924 0.510979 -11.9912 0 0 0
434 1 1 -3.96364 0.817961 -11.0454 0 0 0
435 1 1 -4.34839 1.52891 -10.4567 0 0 0
436 1 1 -4.25735 2.10504 -9.64447 0 0 0
437 1 1 -4.71424 1.23664 -9.8372 0 0 0
438 1 1 -4.80592 1.8358 -9.04183 0 0 0
439 1 1 -4.76355 1.01721 -9.61465 0 0 0
440 1 1 -4.53355 1.13786 -8.64896 0 0 0
441 1 1 -3.58126 1.21727 -8.35428 0 0 0
442 1 1 -4.02958 1.09693 -7.46854 0 0 0
443 1 1 -3.62668 1.6635 -6.74974 0 0 0
444 1 1 -3.10364 1.78246 -5.90578 0 0 0
445 1 1 -3.88296 2.21923 -5.45646 0 0 0
446 1 1 -2.98356 2.34996 -5.87358 0 0 0
447 1 1 -2.97899 2.2772 -6.87092 0 0 0
448 1 1 -2.99869 2.2262 -7.86942 0 0 0
449 1 1 -2.46839 2.55269 -8.65185 0 0 0
450 1 1 -2.174 2.72848 -9.59123 0 0 0
451 1 1 -1.34821 3.22974 -9.33275 0 0 0
452 1 1 -0.527381 3.11824 -8.77256 0 0 0
453 1 1 -1.20813 3.04088 -9.50098 0 0 0
454 1 1 -1.89145 3.24457 -8.79985 0 0 0
455 1 1 -2.2852 3.89804 -8.15337 0 0 0
456 1 1 -2.70318 2.99473 -8.24992 0 0 0
457 1 1 -3.05968 2.17885 -7.79467 0 0 0
458 1 1 -3.59412 1.81937 -7.02972 0 0 0
459 1 1 -3.99797 2.10138 -7.89999 0 0 0
460 1 1 -3.64787 2.94996 -8.29666 0 0 0
461 1 1 -3.70383 3.47837 -9.1438 0 0 0
462 1 1 -3.51959 2.89201 -8.35498 0 0 0
463 1 1 -3.49027 2.97077 -7.35852 0 0 0
464 1 1 -3.10603 2.0481 -7.32643 0 0 0
465 1 1 -3.66391 2.58278 -6.6917 0 0 0
466 1 1 -3.76475 2.28587 -7.64127 0 0 0
467 1 1 -3.51274 3.24742 -7.53218 0 0 0
468 1 1 -3.37947 4.08724 -8.05843 0 0 0
469 1 1 -2.6974 3.76147 -8.71316 0 0 0
470 1 1 -1.85133 3.77984 -9.24591 0 0 0
471 1 1 -1.6655 4.4966 -8.57381 0 0 0
472 1 1 -2.29333 3.94351 -9.12147 0 0 0
473 1 1 -2.02055 3.7637 -10.0666 0 0 0
474 1 1 -2.09667 3.15759 -9.27486 0 0 0
475 1 1 -1.65762 2.4562 -8.71337 0 0 0
476 1 1 -1.48512 2.64436 -9.68024 0 0 0
477 1 1 -1.25955 2.88016 -8.73498 0 0 0
478 1 1 -1.11357 3.04078 -9.71114 0 0 0
479 1 1 -1.85648 3.44835 -9.18013 0 0 0
480 1 1 -1.99272 3.34549 -10.1654 0 0 0
481 1 1 -1.6637 2.85389 -10.9717 0 0 0
482 1 1 -1.73352 3.66139 -10.386 0 0 0
483 1 1 -1.56925 3.63772 -9.39988 0 0 0
484 1 1 -1.38019 2.6564 -9.36432 0 0 0
485 1 1 -1.23648 2.90843 -10.3213 0 0 0
486 1 1 -0.939661 3.46222 -11.0993 0 0 0
487 1 1 -1.8477 3.64594 -10.7228 0 0 0
488 1 1 -1.93023 4.26167 -11.5065 0 0 0
489 1 1 -1.00611 4.23736 -11.1251 0 0 0
490 1 1 -1.00774 4.23354 -10.1251 0 0 0
491 1 1 -0.574428 3.99233 -10.9935 0 0 0
492 1 1 -0.0695303 3.79477 -11.8338 0 0 0
493 1 1 -0.0714437 3.64552 -10.845 0 0 0
494 1 1 -0.227026 3.81225 -9.87133 0 0 0
495 1 1 0.273422 3.87109 -9.00756 0 0 0
496 1 1 0.358047 3.85307 -10.0038 0 0 0
497 1 1 0.297129 4.26728 -10.912 0 0 0
498 1 1 0.86826 3.93229 -10.1626 0 0 0
499 1 1 0.731307 3.23753 -9.45648 0 0 0
500 1 1 1.18279 3.91795 -10.0337 0 0 0
501 1 1 0.836723 3.96254 -10.9709 0 0 0
502 1 1 0.762975 4.81762 -10.4576 0 0 0
503 1 1 0.885293 4.92558 -11.4442 0 0 0
504 1 1 0.443476 5.81599 -11.5537 0 0 0
505 1 1 0.110873 5.73896 -10.6137 0 0 0
506 1 1 0.137526 5.7295 -9.61415 0 0 0
507 1 1 0.595936 4.85181 -9.47443 0 0 0
508 1 1 0.24656 4.84507 -10.4114 0 0 0
509 1 1 1.18808 4.60083 -10.6435 0 0 0
510 1 1 1.17013 4.21152 -11.5644 0 0 0
511 1 1 1.20854 4.155 -12.5621 0 0 0
512 1 1 1.63572 3.48863 -13.1732 0 0 0
513 1 1 1.97288 3.35423 -12.2414 0 0 0
514 1 1 1.50267 3.86326 -12.9624 0 0 0
515 1 1 0.663704 4.12328 -13.4404 0 0 0
516 1 1 -0.29317 3.84398 -13.5203 0 0 0
517 1 1 -0.163959 3.67503 -14.4974 0 0 0
518 1 1 0.246932 3.28729 -15.3226 0 0 0
519 1 1 0.192892 3.36812 -16.3178 0 0 0
520 1 1 0.714621 3.65453 -15.5142 0 0 0
521 1 1 0.801849 4.01213 -16.444 0 0 0
522 1 1 0.760722 4.08128 -15.4473 0 0 0
523 1 1 0.863472 4.01788 -14.4546 0 0 0
524 1 1 0.495107 3.7009 -15.3286 0 0 0
525 1 1 0.39997 3.32011 -16.2483 0 0 0
526 1 1 0.927717 2.59223 -15.8105 0 0 0
527 1 1 1.8312 2.98346 -15.9856 0 0 0
528 1 1 1.45277 2.24917 -16.5492 0 0 0
529 1 1 1.43891 2.25398 -15.5493 0 0 0
530 1 1 1.3692 2.13889 -14.5584 0 0 0
531 1 1 1.0857 2.00891 -15.5085 0 0 0
532 1 1 1.38194 1.47655 -14.7155 0 0 0
533 1 1 2.34651 1.58251 -14.4739 0 0 0
534 1 1 1.73414 2.08055 -15.0879 0 0 0
535 1 1 2.50951 1.61105 -14.6655 0 0 0
536 1 1 2.56442 2.60546 -14.5753 0 0 0
537 1 1 2.18103 2.61299 -13.6517 0 0 0
538 1 1 2.68172 3.44515 -13.8901 0 0 0
539 1 1 1.85576 3.93306 -13.6078 0 0 0
540 1 1 1.73294 4.5662 -14.372 0 0 0
541 1 1 1.99242 4.85185 -13.4495 0 0 0
542 1 1 1.82777 4.48937 -12.5321 0 0 0
543 1 1 2.07853 3.96431 -11.7188 0 0 0
544 1 1 2.34399 4.82423 -11.2829 0 0 0
545 1 1 1.74262 5.26482 -10.6164 0 0 0
546 1 1 1.94705 5.61975 -11.5286 0 0 0
547 1 1 2.03731 5.66516 -12.5235 0 0 0
548 1 1 2.03161 5.66987 -13.5235 0 0 0
549 1 1 1.9577 5.39583 -12.5646 0 0 0
550 1 1 1.35145 5.58105 -13.338 0 0 0
551 1 1 1.33581 6.50904 -13.7103 0 0 0
552 1 1 1.31875 5.68932 -14.2828 0 0 0
553 1 1 1.22716 6.39147 -14.9889 0 0 0
554 1 1 1.37816 6.62433 -15.9496 0 0 0
555 1 1 1.05814 5.85357 -16.5006 0 0 0
556 1 1 1.43003 4.94509 -16.3099 0 0 0
557 1 1 0.944177 4.71916 -17.1542 0 0 0
558 1 1 1.93783 4.83001 -17.1353 0 0 0
559 1 1 2.49285 4.07002 -16.7971 0 0 0
560 1 1 2.14444 3.53616 -16.0267 0 0 0
561 1 1 2.75104 3.89848 -15.319 0 0 0
562 1 1 2.85697 4.41066 -16.1713 0 0 0
563 1 1 3.06864 3.97825 -15.2949 0 0 0
564 1 1 3.05981 4.92156 -15.6267 0 0 0
565 1 1 2.29643 5.56037 -15.7224 0 0 0
566 1 1 2.75928 6.21412 -16.3211 0 0 0
567 1 1 2.03481 6.75218 -16.7519 0 0 0
568 1 1 1.7919 6.94971 -17.7017 0 0 0
569 1 1 2.10492 6.14615 -18.2079 0 0 0
570 1 1 1.50096 6.9278 -18.3637 0 0 0
571 1 1 2.49839 6.85693 -18.3526 0 0 0
572 1 1 2.29566 7.31361 -17.4864 0 0 0
573 1 1 1.77143 6.48153 -17.6676 0 0 0
574 1 1 2.59319 6.20404 -17.1698 0 0 0
575 1 1 1.65116 5.87025 -17.2041 0 0 0
576 1 1 1.71446 4.92746 -17.5314 0 0 0
577 1 1 0.893329 5.30788 -17.9569 0 0 0
578 1 1 0.914375 5.2428 -18.9546 0 0 0
579 1 1 0.301257 4.87568 -18.2551 0 0 0
580 1 1 0.335186 4.71894 -17.268 0 0 0
581 1 1 0.337933 4.64044 -18.2649 0 0 0
582 1 1 0.189314 4.50647 -19.2447 0 0 0
583 1 1 0.424731 4.10563 -18.3593 0 0 0
584 1 1 0.435966 4.08283 -17.3596 0 0 0
585 1 1 -0.405106 3.76279 -17.7957 0 0 0
586 1 1 -0.0679816 4.17094 -16.9473 0 0 0
587 1 1 -0.619495 4.99226 -17.0931 0 0 0
588 1 1 0.164996 5.59733 -16.9573 0 0 0
589 1 1 0.168687 5.58324 -15.9574 0 0 0
590 1 1 0.0045625 5.56716 -14.971 0 0 0
591 1 1 -0.47421 4.82435 -14.5031 0 0 0
592 1 1 0.285231 4.75195 -13.8565 0 0 0
593 1 1 0.277485 5.03032 -12.8961 0 0 0
594 1 1 -0.0686604 5.55203 -13.6758 0 0 0
595 1 1 0.178544 5.13948 -14.5526 0 0 0
596 1 1 0.333605 4.78278 -13.6313 0 0 0
597 1 1 1.21834 5.15277 -13.9148 0 0 0
598 1 1 1.18998 4.1759 -13.7028 0 0 0
599 1 1 0.895803 4.29215 -14.6515 0 0 0
600 1 1 -0.0487507 4.04206 -14.8643 0 0 0
601 1 1 -0.0489174 4.03571 -15.8643 0 0 0
602 1 1 -0.858243 3.80303 -16.4036 0 0 0
603 1 1 -0.677738 4.01553 -15.4432 0 0 0
604 1 1 0.0615642 4.51509 -15.8947 0 0 0
605 1 1 -0.00460615 4.30308 -16.8698 0 0 0
606 1 1 -0.14413 5.23343 -17.2089 0 0 0
607 1 1 0.540352 4.64016 -16.7852 0 0 0
608 1 1 -0.150784 4.86204 -16.0973 0 0 0
609 1 1 0.261502 4.97683 -15.1936 0 0 0
610 1 1 0.860686 4.90521 -15.991 0 0 0
611 1 1 1.18655 4.7286 -16.9197 0 0 0
612 1 1 0.599614 4.83819 -17.7219 0 0 0
613 1 1 0.606432 4.88798 -18.7206 0 0 0
614 1 1 1.06817 4.46278 -17.9422 0 0 0
615 1 1 1.25253 3.61949 -18.447 0 0 0
616 1 1 0.765905 2.77958 -18.2067 0 0 0
617 1 1 1.55612 3.3851 -18.3011 0 0 0
618 1 1 1.10762 2.96381 -17.5128 0 0 0
619 1 1 1.54718 2.43313 -16.7881 0 0 0
620 1 1 1.92053 3.11936 -17.4124 0 0 0
621 1 1 1.47662 3.99431 -17.6058 0 0 0
622 1 1 2.34744 3.53447 -17.4319 0 0 0
623 1 1 2.16813 2.94561 -16.6439 0 0 0
624 1 1 1.61777 3.68501 -16.2561 0 0 0
625 1 1 1.97413 4.30551 -16.9546 0 0 0
626 1 1 1.36344 3.69243 -16.4534 0 0 0
627 1 1 1.55121 3.89046 -15.4914 0 0 0
628 1 1 1.8182 4.02017 -14.5365 0 0 0
629 1 1 1.47616 4.85433 -14.1038 0 0 0
630 1 1 1.61969 4.87801 -15.0932 0 0 0
631 1 1 1.40757 5.08675 -14.1385 0 0 0
632 1 1 0.830469 4.50037 -14.7069 0 0 0
633 1 1 1.65039 3.93123 -14.6452 0 0 0
634 1 1 1.52948 3.24295 -13.9299 0 0 0
635 1 1 2.1856 3.07839 -14.6664 0 0 0
636 1 1 2.03501 3.37179 -15.6104 0 0 0
637 1 1 1.62697 4.03847 -14.9867 0 0 0
638 1 1 0.924145 4.05312 -14.2755 0 0 0
639 1 1 0.832699 3.96574 -13.2835 0 0 0
640 1 1 0.936966 3.51964 -14.1724 0 0 0
641 1 1 1.1946 4.0801 -14.9595 0 0 0
642 1 1 1.88071 3.40592 -14.6861 0 0 0
643 1 1 1.05347 3.36543 -14.1257 0 0 0
644 1 1 0.974103 3.2248 -15.1126 0 0 0
645 1 1 1.41195 2.91463 -15.9564 0 0 0
646 1 1 2.11969 2.50149 -16.5295 0 0 0
647 1 1 1.53908 3.00246 -15.8877 0 0 0
648 1 1 1.59211 2.01264 -16.0198 0 0 0
649 1 1 1.78128 1.24521 -15.4072 0 0 0
650 1 1 2.72329 1.57536 -15.3471 0 0 0
651 1 1 2.22586 2.07993 -16.0527 0 0 0
652 1 1 3.13229 2.28236 -15.6821 0 0 0
653 1 1 2.5833 1.7175 -16.2981 0 0 0
654 1 1 2.59359 0.722496 -16.3974 0 0 0
655 1 1 2.0798 1.20393 -15.6873 0 0 0
656 1 1 3.04582 1.43304 -15.807 0 0 0
657 1 1 3.9792 1.13005 -15.9993 0 0 0
658 1 1 4.16578 0.936908 -16.9626 0 0 0
659 1 1 4.80638 0.180475 -16.8305 0 0 0
660 1 1 4.63555 1.15758 -16.9573 0 0 0
661 1 1 4.70031 1.83041 -17.6943 0 0 0
662 1 1 5.25163 1.97908 -16.8733 0 0 0
663 1 1 5.16794 1.05474 -17.2456 0 0 0
664 1 1 5.66632 0.745241 -18.0554 0 0 0
665 1 1 5.47159 1.72318 -18.1311 0 0 0
666 1 1 5.45557 1.8311 -19.1251 0 0 0
667 1 1 4.96206 2.56397 -19.5934 0 0 0
668 1 1 4.41144 3.17736 -19.0272 0 0 0
669 1 1 4.45924 3.10212 -20.0233 0 0 0
670 1 1 4.52663 3.45829 -19.0913 0 0 0
671 1 1 4.17221 2.92777 -18.3212 0 0 0
672 1 1 4.31591 2.21906 -17.6305 0 0 0
673 1 1 4.7671 3.04911 -17.9583 0 0 0
674 1 1 5.5813 3.39621 -18.4237 0 0 0
675 1 1 5.61618 3.49228 -17.429 0 0 0
676 1 1 5.86842 2.65042 -16.9519 0 0 0
677 1 1 4.91666 2.43682 -16.7316 0 0 0
678 1 1 5.37872 2.58927 -17.6052 0 0 0
679 1 1 4.89482 2.01404 -16.9457 0 0 0
680 1 1 4.92771 1.90047 -17.9387 0 0 0
681 1 1 5.1511 1.79099 -18.9072 0 0 0
682 1 1 4.96144 1.69417 -17.9302 0 0 0
683 1 1 4.42265 2.22142 -17.2731 0 0 0
684 1 1 4.43024 2.40386 -18.2563 0 0 0
685 1 1 5.0162 2.63425 -17.4794 0 0 0
686 1 1 4.09946 3.01712 -17.3654 0 0 0
687 1 1 3.958 2.25138 -17.9928 0 0 0
688 1 1 3.67988 2.8219 -17.22 0 0 0
689 1 1 3.91284 2.5829 -18.1627 0 0 0
690 1 1 4.74569 2.15377 -17.8131 0 0 0
691 1 1 4.71669 1.9452 -16.8355 0 0 0
692 1 1 3.94755 1.96053 -17.4744 0 0 0
693 1 1 3.26159 1.69461 -16.7971 0 0 0
694 1 1 2.29509 1.48551 -16.946 0 0 0
695 1 1 1.71465 1.44962 -16.1324 0 0 0
696 1 1 2.34973 2.02768 -15.6201 0 0 0
697 1 1 1.56709 2.6186 -15.4244 0 0 0
698 1 1 1.3581 1.82322 -15.9933 0 0 0
699 1 1 0.924248 1.33609 -16.7513 0 0 0
700 1 1 1.07268 1.3273 -17.7402 0 0 0
701 1 1 0.36371 1.73988 -18.3121 0 0 0
702 1 1 -0.457909 2.26345 -18.0867 0 0 0
703 1 1 -0.710601 1.93127 -17.178 0 0 0
704 1 1 0.0234356 2.06524 -17.8437 0 0 0
705 1 1 0.758631 2.74034 -17.9048 0 0 0
706 1 1 0.632972 2.66388 -18.894 0 0 0
707 1 1 0.418501 2.25185 -19.7795 0 0 0
708 1 1 0.619716 2.41699 -18.814 0 0 0
709 1 1 0.167251 1.92675 -18.0691 0 0 0
710 1 1 -0.647503 2.30997 -18.5042 0 0 0
711 1 1 -0.22491 2.23501 -17.6009 0 0 0
712 1 1 -1.09589 1.76677 -17.7498 0 0 0
713 1 1 -1.03948 2.6817 -17.3501 0 0 0
714 1 1 -0.549971 3.29606 -16.7313 0 0 0
715 1 1 -0.526088 3.67976 -17.6545 0 0 0
716 1 1 -0.896503 3.5105 -16.7411 0 0 0
717 1 1 -1.71419 3.17998 -17.2125 0 0 0
718 1 1 -1.69557 3.11321 -18.2101 0 0 0
719 1 1 -1.84722 2.52544 -17.4154 0 0 0
720 1 1 -1.9233 2.00043 -18.2631 0 0 0
721 1 1 -1.8428 1.49242 -19.1206 0 0 0
722 1 1 -2.22496 0.750862 -18.5692 0 0 0
723 1 1 -3.01579 1.34142 -18.4086 0 0 0
724 1 1 -3.27946 0.770837 -19.1863 0 0 0
725 1 1 -3.36183 0.811553 -18.1905 0 0 0
726 1 1 -3.19795 1.11183 -17.2509 0 0 0
727 1 1 -3.71363 0.313889 -16.9388 0 0 0
728 1 1 -3.63305 -0.390852 -17.6437 0 0 0
729 1 1 -3.32893 -0.31964 -18.5937 0 0 0
730 1 1 -3.28872 -0.592533 -19.5549 0 0 0
731 1 1 -2.55457 -0.381454 -18.9095 0 0 0
732 1 1 -1.75285 -0.740779 -18.4319 0 0 0
733 1 1 -2.15223 0.116095 -18.7579 0 0 0
734 1 1 -1.85854 -0.582618 -19.4102 0 0 0
735 1 1 -1.94606 -0.609975 -18.4145 0 0 0
736 1 1 -1.32701 -1.38505 -18.5411 0 0 0
737 1 1 -0.808252 -2.05804 -18.0139 0 0 0
738 1 1 -0.672004 -3.04376 -18.1128 0 0 0
739 1 1 -0.955674 -2.39018 -17.4111 0 0 0
740 1 1 -1.1515 -1.42066 -17.2639 0 0 0
741 1 1 -1.81796 -1.7046 -17.9532 0 0 0
742 1 1 -1.19296 -0.938437 -17.8036 0 0 0
743 1 1 -0.998554 -0.324328 -17.0387 0 0 0